 vasp.6.3.2 27Jun22 (build Dec 21 2022 11:15:52) complex                        
  
 executed on Aspire2aVTSTlibbeefS date 2024.05.29  17:56:29
 running  128 mpi-ranks, with    1 threads/rank
 distrk:  each k-point on  128 cores,    1 groups
 distr:  one band on NCORE=  16 cores,    8 groups


--------------------------------------------------------------------------------------------------------


 INCAR:
   ENCUT = 500.000000
   SIGMA = 0.100000
   EDIFF = 1.00e-05
   EDIFFG = -3.00e-02
   ALGO = Fast
   GGA = RPBE
   PREC = Accurate
   IBRION = 2
   ICHARG = 2
   ISIF = 2
   ISMEAR = 0
   ISPIN = 1
   ISTART = 0
   NELM = 90
   NELMIN = 5
   NPAR = 8
   NSIM = 8
   NSW = 500
   LCHARG = .FALSE.
   LPLANE = .FALSE.
   LWAVE = .FALSE.
   LREAL = .FALSE.

 POTCAR:    PAW_PBE Au 04Oct2007                  
 POTCAR:    PAW_PBE Cu 22Jun2005                  
 POTCAR:    PAW_PBE Ag 02Apr2005                  
 POTCAR:    PAW_PBE Pt 04Feb2005                  
 POTCAR:    PAW_PBE Pd 04Jan2005                  
 POTCAR:    PAW_PBE C 08Apr2002                   
 POTCAR:    PAW_PBE O 08Apr2002                   
 POTCAR:    PAW_PBE Au 04Oct2007                  
   VRHFIN =Au: s1d10                                                                                
   LEXCH  = PE                                                                                      
   EATOM  =   926.0867 eV,   68.0654 Ry                                                             
                                                                                                    
   TITEL  = PAW_PBE Au 04Oct2007                                                                    
   LULTRA =        F    use ultrasoft PP ?                                                          
   IUNSCR =        1    unscreen: 0-lin 1-nonlin 2-no                                               
   RPACOR =    2.330    partial core radius                                                         
   POMASS =  196.966; ZVAL   =   11.000    mass and valenz                                          
   RCORE  =    2.500    outmost cutoff radius                                                       
   RWIGS  =    2.840; RWIGS  =    1.503    wigner-seitz radius (au A)                               
   ENMAX  =  229.943; ENMIN  =  172.457 eV                                                          
   ICORE  =        3    local potential                                                             
   LCOR   =        T    correct aug charges                                                         
   LPAW   =        T    paw PP                                                                      
   EAUG   =  356.670                                                                                
   DEXC   =    0.000                                                                                
   RMAX   =    2.562    core radius for proj-oper                                                   
   RAUG   =    1.300    factor for augmentation sphere                                              
   RDEP   =    2.598    radius for radial grids                                                     
   RDEPT  =    2.193    core radius for aug-charge                                                  
                                                                                                    
   Atomic configuration                                                                             
   16 entries                                                                                       
     n  l   j            E        occ.                                                              
     1  0  0.50    -80748.5001   2.0000                                                             
     2  0  0.50    -14244.7466   2.0000                                                             
     2  1  1.50    -12310.9591   6.0000                                                             
     3  0  0.50     -3362.1768   2.0000                                                             
     3  1  1.50     -2801.5463   6.0000                                                             
     3  2  2.50     -2203.8206  10.0000                                                             
     4  0  0.50      -729.8168   2.0000                                                             
     4  1  1.50      -546.0527   6.0000                                                             
     4  2  2.50      -325.7302  10.0000                                                             
     4  3  3.50       -81.1472  14.0000                                                             
     5  0  0.50      -108.3201   2.0000                                                             
     5  1  1.50       -59.7479   6.0000                                                             
     5  2  2.50        -6.8783  10.0000                                                             
     6  0  0.50        -5.7602   1.0000                                                             
     6  1  1.50        -6.8029   0.0000                                                             
     5  3  2.50        -1.3606   0.0000                                                             
   Description                                                                                      
     l       E           TYP  RCUT    TYP  RCUT                                                     
     2     -6.8782861     23  2.500                                                                 
     2     -8.2388687     23  2.500                                                                 
     0     -5.7601759     23  2.500                                                                 
     0     -0.8493231     23  2.500                                                                 
     1     -2.7211652     23  2.500                                                                 
     1     27.2116520     23  2.500                                                                 
     3     -1.3605826     23  2.500                                                                 
  local pseudopotential read in
  partial core-charges read in
  partial kinetic energy density read in
  atomic valenz-charges read in
  non local Contribution for L=           2  read in
    real space projection operators read in
  non local Contribution for L=           2  read in
    real space projection operators read in
  non local Contribution for L=           0  read in
    real space projection operators read in
  non local Contribution for L=           0  read in
    real space projection operators read in
  non local Contribution for L=           1  read in
    real space projection operators read in
  non local Contribution for L=           1  read in
    real space projection operators read in
    PAW grid and wavefunctions read in
 
   number of l-projection  operators is LMAX  =           6
   number of lm-projection operators is LMMAX =          18
 
 POTCAR:    PAW_PBE Cu 22Jun2005                  
   VRHFIN =Cu: d10 p1                                                                               
   LEXCH  = PE                                                                                      
   EATOM  =  1390.9808 eV,  102.2342 Ry                                                             
                                                                                                    
   TITEL  = PAW_PBE Cu 22Jun2005                                                                    
   LULTRA =        F    use ultrasoft PP ?                                                          
   IUNSCR =        1    unscreen: 0-lin 1-nonlin 2-no                                               
   RPACOR =    2.000    partial core radius                                                         
   POMASS =   63.546; ZVAL   =   11.000    mass and valenz                                          
   RCORE  =    2.300    outmost cutoff radius                                                       
   RWIGS  =    2.200; RWIGS  =    1.164    wigner-seitz radius (au A)                               
   ENMAX  =  295.446; ENMIN  =  221.585 eV                                                          
   ICORE  =        3    local potential                                                             
   LCOR   =        T    correct aug charges                                                         
   LPAW   =        T    paw PP                                                                      
   EAUG   =  586.980                                                                                
   DEXC   =    0.000                                                                                
   RMAX   =    2.344    core radius for proj-oper                                                   
   RAUG   =    1.300    factor for augmentation sphere                                              
   RDEP   =    2.302    radius for radial grids                                                     
   RDEPT  =    1.771    core radius for aug-charge                                                  
                                                                                                    
   Atomic configuration                                                                             
    9 entries                                                                                       
     n  l   j            E        occ.                                                              
     1  0  0.50     -8850.2468   2.0000                                                             
     2  0  0.50     -1062.3498   2.0000                                                             
     2  1  1.50      -916.8226   6.0000                                                             
     3  0  0.50      -114.6929   2.0000                                                             
     3  1  1.50       -72.1325   6.0000                                                             
     3  2  2.50        -5.0394  10.0000                                                             
     4  0  0.50        -4.6097   1.0000                                                             
     4  1  0.50        -4.0817   0.0000                                                             
     4  3  2.50        -1.3606   0.0000                                                             
   Description                                                                                      
     l       E           TYP  RCUT    TYP  RCUT                                                     
     2     -5.0393973     23  2.200                                                                 
     2     10.8846608     23  2.200                                                                 
     0     -4.6097109     23  2.200                                                                 
     0      8.2520465     23  2.200                                                                 
     1     -2.7211652     23  2.200                                                                 
     1     21.7055443     23  2.200                                                                 
     3      2.7211652     23  2.300                                                                 
  local pseudopotential read in
  partial core-charges read in
  partial kinetic energy density read in
  atomic valenz-charges read in
  non local Contribution for L=           2  read in
    real space projection operators read in
  non local Contribution for L=           2  read in
    real space projection operators read in
  non local Contribution for L=           0  read in
    real space projection operators read in
  non local Contribution for L=           0  read in
    real space projection operators read in
  non local Contribution for L=           1  read in
    real space projection operators read in
  non local Contribution for L=           1  read in
    real space projection operators read in
    PAW grid and wavefunctions read in
 
   number of l-projection  operators is LMAX  =           6
   number of lm-projection operators is LMMAX =          18
 
 POTCAR:    PAW_PBE Ag 02Apr2005                  
   VRHFIN =Ag : s1 d10                                                                              
   LEXCH  = PE                                                                                      
   EATOM  =  1037.2675 eV,   76.2370 Ry                                                             
                                                                                                    
   TITEL  = PAW_PBE Ag 02Apr2005                                                                    
   LULTRA =        F    use ultrasoft PP ?                                                          
   IUNSCR =        1    unscreen: 0-lin 1-nonlin 2-no                                               
   RPACOR =    2.000    partial core radius                                                         
   POMASS =  107.868; ZVAL   =   11.000    mass and valenz                                          
   RCORE  =    2.500    outmost cutoff radius                                                       
   RWIGS  =    2.840; RWIGS  =    1.503    wigner-seitz radius (au A)                               
   ENMAX  =  249.844; ENMIN  =  187.383 eV                                                          
   ICORE  =        3    local potential                                                             
   LCOR   =        T    correct aug charges                                                         
   LPAW   =        T    paw PP                                                                      
   EAUG   =  412.496                                                                                
   DEXC   =    0.000                                                                                
   RMAX   =    2.560    core radius for proj-oper                                                   
   RAUG   =    1.300    factor for augmentation sphere                                              
   RDEP   =    2.576    radius for radial grids                                                     
   RDEPT  =    2.072    core radius for aug-charge                                                  
                                                                                                    
   Atomic configuration                                                                             
   12 entries                                                                                       
     n  l   j            E        occ.                                                              
     1  0  0.50    -25324.9161   2.0000                                                             
     2  0  0.50     -3728.5341   2.0000                                                             
     2  1  1.50     -3344.0404   6.0000                                                             
     3  0  0.50      -683.5581   2.0000                                                             
     3  1  1.50      -557.3225   6.0000                                                             
     3  2  2.50      -358.3853  10.0000                                                             
     4  0  0.50       -95.0341   2.0000                                                             
     4  1  1.50       -58.5511   6.0000                                                             
     4  2  2.50        -7.4440  10.0000                                                             
     5  0  0.50        -4.4045   1.0000                                                             
     5  1  0.50        -1.3606   0.0000                                                             
     4  3  2.50        -1.3606   0.0000                                                             
   Description                                                                                      
     l       E           TYP  RCUT    TYP  RCUT                                                     
     2     -7.4439781     23  2.400                                                                 
     2     -8.8045607     23  2.400                                                                 
     0     -4.4044681     23  2.400                                                                 
     0      1.9520038     23  2.400                                                                 
     1     -1.3605826     23  2.500                                                                 
     1     27.2116520     23  2.500                                                                 
     3     -4.0817478     23  2.400                                                                 
  local pseudopotential read in
  partial core-charges read in
  partial kinetic energy density read in
  atomic valenz-charges read in
  non local Contribution for L=           2  read in
    real space projection operators read in
  non local Contribution for L=           2  read in
    real space projection operators read in
  non local Contribution for L=           0  read in
    real space projection operators read in
  non local Contribution for L=           0  read in
    real space projection operators read in
  non local Contribution for L=           1  read in
    real space projection operators read in
  non local Contribution for L=           1  read in
    real space projection operators read in
    PAW grid and wavefunctions read in
 
   number of l-projection  operators is LMAX  =           6
   number of lm-projection operators is LMMAX =          18
 
 POTCAR:    PAW_PBE Pt 04Feb2005                  
   VRHFIN =Pt: s1d9                                                                                 
   LEXCH  = PE                                                                                      
   EATOM  =   729.1176 eV,   53.5886 Ry                                                             
                                                                                                    
   TITEL  = PAW_PBE Pt 04Feb2005                                                                    
   LULTRA =        F    use ultrasoft PP ?                                                          
   IUNSCR =        1    unscreen: 0-lin 1-nonlin 2-no                                               
   RPACOR =    2.330    partial core radius                                                         
   POMASS =  195.080; ZVAL   =   10.000    mass and valenz                                          
   RCORE  =    2.600    outmost cutoff radius                                                       
   RWIGS  =    2.750; RWIGS  =    1.455    wigner-seitz radius (au A)                               
   ENMAX  =  230.283; ENMIN  =  172.712 eV                                                          
   ICORE  =        3    local potential                                                             
   LCOR   =        T    correct aug charges                                                         
   LPAW   =        T    paw PP                                                                      
   EAUG   =  358.966                                                                                
   DEXC   =    0.000                                                                                
   RMAX   =    2.658    core radius for proj-oper                                                   
   RAUG   =    1.300    factor for augmentation sphere                                              
   RDEP   =    2.761    radius for radial grids                                                     
   RDEPT  =    2.203    core radius for aug-charge                                                  
                                                                                                    
   Atomic configuration                                                                             
   16 entries                                                                                       
     n  l   j            E        occ.                                                              
     1  0  0.50    -78401.1885   2.0000                                                             
     2  0  0.50    -13770.7750   2.0000                                                             
     2  1  1.50    -11931.0468   6.0000                                                             
     3  0  0.50     -3234.7234   2.0000                                                             
     3  1  1.50     -2699.2216   6.0000                                                             
     3  2  2.50     -2119.5714  10.0000                                                             
     4  0  0.50      -695.1528   2.0000                                                             
     4  1  1.50      -519.6034   6.0000                                                             
     4  2  2.50      -306.6786  10.0000                                                             
     4  3  3.50       -70.1041  14.0000                                                             
     5  0  0.50      -101.7747   2.0000                                                             
     5  1  1.50       -55.9873   6.0000                                                             
     5  2  2.50        -6.1423   9.0000                                                             
     6  0  0.50        -5.6573   1.0000                                                             
     6  1  1.50        -6.8029   0.0000                                                             
     5  3  2.50        -1.3606   0.0000                                                             
   Description                                                                                      
     l       E           TYP  RCUT    TYP  RCUT                                                     
     2     -6.1423404     23  2.500                                                                 
     2     -7.5029230     23  2.500                                                                 
     0     -5.6573207     23  2.500                                                                 
     0      0.7416693     23  2.500                                                                 
     1     -2.7211652     23  2.600                                                                 
     1     20.4087390     23  2.600                                                                 
     3     -1.3605826     23  2.500                                                                 
  local pseudopotential read in
  partial core-charges read in
  partial kinetic energy density read in
  atomic valenz-charges read in
  non local Contribution for L=           2  read in
    real space projection operators read in
  non local Contribution for L=           2  read in
    real space projection operators read in
  non local Contribution for L=           0  read in
    real space projection operators read in
  non local Contribution for L=           0  read in
    real space projection operators read in
  non local Contribution for L=           1  read in
    real space projection operators read in
  non local Contribution for L=           1  read in
    real space projection operators read in
    PAW grid and wavefunctions read in
 
   number of l-projection  operators is LMAX  =           6
   number of lm-projection operators is LMMAX =          18
 
 POTCAR:    PAW_PBE Pd 04Jan2005                  
   VRHFIN =Pd : s1 d9                                                                               
   LEXCH  = PE                                                                                      
   EATOM  =   809.7530 eV,   59.5152 Ry                                                             
                                                                                                    
   TITEL  = PAW_PBE Pd 04Jan2005                                                                    
   LULTRA =        F    use ultrasoft PP ?                                                          
   IUNSCR =        1    unscreen: 0-lin 1-nonlin 2-no                                               
   RPACOR =    2.000    partial core radius                                                         
   POMASS =  106.420; ZVAL   =   10.000    mass and valenz                                          
   RCORE  =    2.600    outmost cutoff radius                                                       
   RWIGS  =    2.710; RWIGS  =    1.434    wigner-seitz radius (au A)                               
   ENMAX  =  250.925; ENMIN  =  188.194 eV                                                          
   ICORE  =        3    local potential                                                             
   LCOR   =        T    correct aug charges                                                         
   LPAW   =        T    paw PP                                                                      
   EAUG   =  416.230                                                                                
   DEXC   =    0.000                                                                                
   RMAX   =    2.653    core radius for proj-oper                                                   
   RAUG   =    1.300    factor for augmentation sphere                                              
   RDEP   =    2.734    radius for radial grids                                                     
   RDEPT  =    2.103    core radius for aug-charge                                                  
                                                                                                    
   Atomic configuration                                                                             
   12 entries                                                                                       
     n  l   j            E        occ.                                                              
     1  0  0.50    -24164.6631   2.0000                                                             
     2  0  0.50     -3530.9218   2.0000                                                             
     2  1  1.50     -3165.6822   6.0000                                                             
     3  0  0.50      -639.4577   2.0000                                                             
     3  1  1.50      -519.4532   6.0000                                                             
     3  2  2.50      -328.9757  10.0000                                                             
     4  0  0.50       -88.7014   2.0000                                                             
     4  1  1.50       -54.4540   6.0000                                                             
     4  2  2.50        -6.6878   9.0000                                                             
     5  0  0.50        -4.3543   1.0000                                                             
     5  1  0.50        -1.3606   0.0000                                                             
     4  3  2.50        -1.3606   0.0000                                                             
   Description                                                                                      
     l       E           TYP  RCUT    TYP  RCUT                                                     
     2     -6.6878251     23  2.400                                                                 
     2     -8.0484077     23  2.400                                                                 
     0     -4.3542939     23  2.400                                                                 
     0      4.3406793     23  2.400                                                                 
     1     -4.0817478     23  2.600                                                                 
     1     15.8380318     23  2.600                                                                 
     3     -4.0817478     23  2.400                                                                 
  local pseudopotential read in
  partial core-charges read in
  partial kinetic energy density read in
  atomic valenz-charges read in
  non local Contribution for L=           2  read in
    real space projection operators read in
  non local Contribution for L=           2  read in
    real space projection operators read in
  non local Contribution for L=           0  read in
    real space projection operators read in
  non local Contribution for L=           0  read in
    real space projection operators read in
  non local Contribution for L=           1  read in
    real space projection operators read in
  non local Contribution for L=           1  read in
    real space projection operators read in
    PAW grid and wavefunctions read in
 
   number of l-projection  operators is LMAX  =           6
   number of lm-projection operators is LMMAX =          18
 
 POTCAR:    PAW_PBE C 08Apr2002                   
   VRHFIN =C: s2p2                                                                                  
   LEXCH  = PE                                                                                      
   EATOM  =   147.1560 eV,   10.8157 Ry                                                             
                                                                                                    
   TITEL  = PAW_PBE C 08Apr2002                                                                     
   LULTRA =        F    use ultrasoft PP ?                                                          
   IUNSCR =        1    unscreen: 0-lin 1-nonlin 2-no                                               
   RPACOR =    1.200    partial core radius                                                         
   POMASS =   12.011; ZVAL   =    4.000    mass and valenz                                          
   RCORE  =    1.500    outmost cutoff radius                                                       
   RWIGS  =    1.630; RWIGS  =    0.863    wigner-seitz radius (au A)                               
   ENMAX  =  400.000; ENMIN  =  300.000 eV                                                          
   ICORE  =        2    local potential                                                             
   LCOR   =        T    correct aug charges                                                         
   LPAW   =        T    paw PP                                                                      
   EAUG   =  644.873                                                                                
   DEXC   =    0.000                                                                                
   RMAX   =    1.529    core radius for proj-oper                                                   
   RAUG   =    1.300    factor for augmentation sphere                                              
   RDEP   =    1.501    radius for radial grids                                                     
   RDEPT  =    1.300    core radius for aug-charge                                                  
                                                                                                    
   Atomic configuration                                                                             
    4 entries                                                                                       
     n  l   j            E        occ.                                                              
     1  0  0.50      -273.3789   2.0000                                                             
     2  0  0.50       -13.7508   2.0000                                                             
     2  1  0.50        -5.2854   2.0000                                                             
     3  2  1.50        -5.4423   0.0000                                                             
   Description                                                                                      
     l       E           TYP  RCUT    TYP  RCUT                                                     
     0    -13.7508458     23  1.200                                                                 
     0     -8.2022199     23  1.200                                                                 
     1     -5.2854383     23  1.500                                                                 
     1     34.0145650     23  1.500                                                                 
     2     -5.4423304      7  1.500                                                                 
  local pseudopotential read in
  partial core-charges read in
  partial kinetic energy density read in
  atomic valenz-charges read in
  non local Contribution for L=           0  read in
    real space projection operators read in
  non local Contribution for L=           0  read in
    real space projection operators read in
  non local Contribution for L=           1  read in
    real space projection operators read in
  non local Contribution for L=           1  read in
    real space projection operators read in
    PAW grid and wavefunctions read in
 
   number of l-projection  operators is LMAX  =           4
   number of lm-projection operators is LMMAX =           8
 
 POTCAR:    PAW_PBE O 08Apr2002                   
   VRHFIN =O: s2p4                                                                                  
   LEXCH  = PE                                                                                      
   EATOM  =   432.3788 eV,   31.7789 Ry                                                             
                                                                                                    
   TITEL  = PAW_PBE O 08Apr2002                                                                     
   LULTRA =        F    use ultrasoft PP ?                                                          
   IUNSCR =        1    unscreen: 0-lin 1-nonlin 2-no                                               
   RPACOR =    1.200    partial core radius                                                         
   POMASS =   16.000; ZVAL   =    6.000    mass and valenz                                          
   RCORE  =    1.520    outmost cutoff radius                                                       
   RWIGS  =    1.550; RWIGS  =    0.820    wigner-seitz radius (au A)                               
   ENMAX  =  400.000; ENMIN  =  300.000 eV                                                          
   ICORE  =        2    local potential                                                             
   LCOR   =        T    correct aug charges                                                         
   LPAW   =        T    paw PP                                                                      
   EAUG   =  605.392                                                                                
   DEXC   =    0.000                                                                                
   RMAX   =    1.553    core radius for proj-oper                                                   
   RAUG   =    1.300    factor for augmentation sphere                                              
   RDEP   =    1.550    radius for radial grids                                                     
   RDEPT  =    1.329    core radius for aug-charge                                                  
                                                                                                    
   Atomic configuration                                                                             
    4 entries                                                                                       
     n  l   j            E        occ.                                                              
     1  0  0.50      -514.6923   2.0000                                                             
     2  0  0.50       -23.9615   2.0000                                                             
     2  1  0.50        -9.0305   4.0000                                                             
     3  2  1.50        -9.5241   0.0000                                                             
   Description                                                                                      
     l       E           TYP  RCUT    TYP  RCUT                                                     
     0    -23.9615318     23  1.200                                                                 
     0     -9.5240782     23  1.200                                                                 
     1     -9.0304911     23  1.520                                                                 
     1      8.1634956     23  1.520                                                                 
     2     -9.5240782      7  1.500                                                                 
  local pseudopotential read in
  partial core-charges read in
  partial kinetic energy density read in
  kinetic energy density of atom read in
  atomic valenz-charges read in
  non local Contribution for L=           0  read in
    real space projection operators read in
  non local Contribution for L=           0  read in
    real space projection operators read in
  non local Contribution for L=           1  read in
    real space projection operators read in
  non local Contribution for L=           1  read in
    real space projection operators read in
    PAW grid and wavefunctions read in
 
   number of l-projection  operators is LMAX  =           4
   number of lm-projection operators is LMMAX =           8
 
 -----------------------------------------------------------------------------
|                                                                             |
|               ----> ADVICE to this user running VASP <----                  |
|                                                                             |
|     You have a (more or less) 'large supercell' and for larger cells it     |
|     might be more efficient to use real-space projection operators.         |
|     Therefore, try LREAL= Auto in the INCAR file.                           |
|     Mind: For very accurate calculation, you might also keep the            |
|     reciprocal projection scheme (i.e. LREAL=.FALSE.).                      |
|                                                                             |
 -----------------------------------------------------------------------------

 -----------------------------------------------------------------------------
|                                                                             |
|               ----> ADVICE to this user running VASP <----                  |
|                                                                             |
|     You enforced a specific xc type in the INCAR file but a different       |
|     type was found in the POTCAR file.                                      |
|     I HOPE YOU KNOW WHAT YOU ARE DOING!                                     |
|                                                                             |
 -----------------------------------------------------------------------------

  PAW_PBE Au 04Oct2007                  :
 energy of atom  1       EATOM= -926.0867
 kinetic energy error for atom=    0.0042 (will be added to EATOM!!)
  PAW_PBE Cu 22Jun2005                  :
 energy of atom  2       EATOM=-1390.9808
 kinetic energy error for atom=    0.0043 (will be added to EATOM!!)
  PAW_PBE Ag 02Apr2005                  :
 energy of atom  3       EATOM=-1037.2675
 kinetic energy error for atom=    0.0052 (will be added to EATOM!!)
  PAW_PBE Pt 04Feb2005                  :
 energy of atom  4       EATOM= -729.1176
 kinetic energy error for atom=    0.0039 (will be added to EATOM!!)
  PAW_PBE Pd 04Jan2005                  :
 energy of atom  5       EATOM= -809.7530
 kinetic energy error for atom=    0.0049 (will be added to EATOM!!)
  PAW_PBE C 08Apr2002                   :
 energy of atom  6       EATOM= -147.1560
 kinetic energy error for atom=    0.0076 (will be added to EATOM!!)
  PAW_PBE O 08Apr2002                   :
 energy of atom  7       EATOM= -432.3788
 kinetic energy error for atom=    0.0224 (will be added to EATOM!!)
 
 
 POSCAR: Au Cu Ag Pt Pd  C  O
  positions in cartesian coordinates
  No initial velocities read in
 exchange correlation table for  LEXCH =        9
   RHO(1)=    0.500       N(1)  =     2000
   RHO(2)=  100.500       N(2)  =     4000

 VTST: version 4.2, (08/11/21)

 CHAIN: initializing optimizer
 
 OPT: Using VASP Conjugate-Gradient optimizer
 CHAIN: Read ICHAIN            0
 
 POSCAR: Au Cu Ag Pt Pd  C  O
  positions in cartesian coordinates
  No initial velocities read in
 


--------------------------------------------------------------------------------------------------------


 ion  position               nearest neighbor table
   1  0.618  0.501  0.569-  47 2.70  50 2.73  21 2.76  15 2.77  35 2.79   3 2.79   7 2.81  23 2.83
                            12 2.83  34 2.87  36 2.92  28 2.92
   2  0.424  0.385  0.499-  17 2.54  22 2.68  23 2.74  39 2.78  45 2.79  12 2.83  31 2.84  30 2.85
                            24 2.86  13 2.86  33 2.87   3 2.99
   3  0.574  0.390  0.496-  21 2.63  20 2.65  23 2.69  44 2.75  13 2.76   6 2.76  39 2.76   1 2.79
                            12 2.82  34 2.82  11 2.90   2 2.99
   4  0.272  0.499  0.346-  24 2.73  19 2.78  54 2.79  29 2.94  30 2.98  25 3.13
   5  0.359  0.732  0.494-  46 2.70  26 2.85  43 2.86  29 2.88   9 2.98  10 2.99
   6  0.647  0.274  0.488-  21 2.76   3 2.76  20 2.79  44 2.80  39 2.87  11 3.05
   7  0.625  0.569  0.692-   1 2.81  48 2.83  41 2.86  50 2.87  28 2.89  36 3.02  55 3.04  47 3.25

   8  0.697  0.619  0.426-  38 2.78  37 2.81  34 2.82  15 2.92  35 2.93  51 2.98  28 3.05  32 3.07

   9  0.308  0.617  0.574-  16 2.75  45 2.80  46 2.87  53 2.88  25 2.93   5 2.98  29 3.01  10 3.01

  10  0.428  0.695  0.621-  36 2.83  46 2.88  55 2.90  53 2.90  48 2.91   5 2.99   9 3.01  26 3.02

  11  0.573  0.309  0.616-  21 2.68  22 2.71  40 2.74  39 2.81  50 2.88  12 2.88   3 2.90   6 3.05

  12  0.500  0.433  0.608-  40 2.56  22 2.59  41 2.61  23 2.62  52 2.77  45 2.80  36 2.80   3 2.82
                             1 2.83   2 2.83  50 2.87  11 2.88
  13  0.500  0.432  0.387-  42 2.56  23 2.60  49 2.60  44 2.68   3 2.76  54 2.77  34 2.80  24 2.86
                             2 2.86  27 2.92  33 3.03
  14  0.501  0.572  0.388-  18 2.43  23 2.59  43 2.62  49 2.65  34 2.68  19 2.71  51 2.74  32 2.76
                            46 2.79  35 2.83  24 2.89
  15  0.730  0.492  0.489-  56 2.00  37 2.57  47 2.61  34 2.70   1 2.77   8 2.92
  16  0.283  0.501  0.643-  45 2.51  53 2.65  52 2.66   9 2.75  31 2.84  25 2.87
  17  0.377  0.268  0.513-   2 2.54  39 2.56  22 2.59  33 2.85  31 2.90  30 3.17
  18  0.495  0.631  0.282-  14 2.43  19 2.57  43 2.59  49 2.60  51 2.69  32 2.74
  19  0.388  0.569  0.315-  18 2.57  24 2.62  49 2.63  43 2.64  14 2.71   4 2.78  54 2.92  29 2.95

  20  0.676  0.387  0.412-  37 2.63   3 2.65  27 2.68  44 2.70  34 2.73   6 2.79
  21  0.680  0.377  0.573-   3 2.63  47 2.65  50 2.68  11 2.68   1 2.76   6 2.76
  22  0.438  0.320  0.615-  17 2.59  12 2.59  40 2.62   2 2.68  11 2.71  52 2.83  39 2.83  31 2.90

  23  0.497  0.501  0.496-  14 2.59  13 2.60  12 2.62  46 2.68  36 2.69  45 2.69   3 2.69  34 2.70
                            24 2.70  35 2.72   2 2.74   1 2.83
  24  0.382  0.501  0.426-  19 2.62  23 2.70   4 2.73  54 2.76  45 2.84  13 2.86   2 2.86  29 2.86
                            14 2.89  25 2.89  30 2.94  46 2.94
  25  0.259  0.499  0.502-  45 2.82  16 2.87  24 2.89   9 2.93  29 3.01  30 3.03  31 3.08   4 3.13

  26  0.501  0.744  0.499-  38 2.84   5 2.85  46 2.87  32 2.92  35 2.95  55 2.95  10 3.02  43 3.12

  27  0.617  0.429  0.299-  20 2.68  42 2.77  37 2.83  49 2.89  51 2.91  13 2.92  34 2.97  44 3.00

  28  0.697  0.623  0.579-  38 2.81   7 2.89   1 2.92  35 2.93  55 2.93  47 3.03   8 3.05
  29  0.303  0.620  0.424-  43 2.84  24 2.86   5 2.88   4 2.94  19 2.95  46 2.99  25 3.01   9 3.01

  30  0.303  0.377  0.424-   2 2.85  54 2.92  24 2.94  33 2.95   4 2.98  25 3.03  31 3.13  17 3.17

  31  0.309  0.377  0.581-  16 2.84   2 2.84  52 2.84  45 2.87  17 2.90  22 2.90  25 3.08  30 3.13

  32  0.569  0.692  0.380-  18 2.74  14 2.76  38 2.86  51 2.87  35 2.91  43 2.92  26 2.92   8 3.07

  33  0.423  0.301  0.383-  42 2.82  17 2.85   2 2.87  44 2.87  39 2.91  54 2.92  30 2.95  13 3.03

  34  0.612  0.507  0.426-  37 2.61  51 2.67  14 2.68  23 2.70  15 2.70  20 2.73  35 2.77  13 2.80
                             8 2.82   3 2.82   1 2.87  27 2.97
  35  0.572  0.615  0.503-  38 2.61  55 2.72  36 2.72  23 2.72  34 2.77   1 2.79  46 2.82  14 2.83
                            32 2.91  28 2.93   8 2.93  26 2.95
  36  0.498  0.573  0.610-  41 2.68  48 2.68  23 2.69  53 2.71  35 2.72  46 2.73  55 2.78  12 2.80
                            10 2.83  45 2.87   1 2.92   7 3.02
  37  0.724  0.498  0.361-  15 2.57  34 2.61  20 2.63   8 2.81  27 2.83  51 2.87
  38  0.642  0.725  0.499-  35 2.61   8 2.78  55 2.81  28 2.81  26 2.84  32 2.86
  39  0.504  0.271  0.500-  17 2.56   3 2.76   2 2.78  11 2.81  44 2.81  22 2.83   6 2.87  33 2.91

  40  0.502  0.367  0.718-  12 2.56  22 2.62  41 2.63  52 2.71  11 2.74  50 2.76
  41  0.504  0.499  0.721-  12 2.61  40 2.63  36 2.68  48 2.72  52 2.81   7 2.86  53 2.86  50 2.87

  42  0.498  0.362  0.279-  13 2.56  44 2.63  54 2.67  27 2.77  49 2.78  33 2.82
  43  0.424  0.678  0.379-  18 2.59  14 2.62  19 2.64  46 2.70  29 2.84   5 2.86  32 2.92  26 3.12

  44  0.566  0.315  0.381-  42 2.63  13 2.68  20 2.70   3 2.75   6 2.80  39 2.81  33 2.87  27 3.00

  45  0.383  0.499  0.568-  16 2.51  23 2.69  52 2.75  53 2.78   2 2.79  12 2.80   9 2.80  25 2.82
                            24 2.84  36 2.87  31 2.87  46 2.91
  46  0.431  0.618  0.500-  23 2.68  43 2.70   5 2.70  36 2.73  14 2.79  35 2.82  26 2.87   9 2.87
                            10 2.88  45 2.91  24 2.94  29 2.99
  47  0.743  0.484  0.619-  56 1.97  15 2.61  21 2.65   1 2.70  50 2.97  28 3.03   7 3.25
  48  0.505  0.635  0.729-  36 2.68  41 2.72  53 2.81   7 2.83  55 2.86  10 2.91
  49  0.494  0.501  0.277-  18 2.60  13 2.60  19 2.63  14 2.65  54 2.78  42 2.78  27 2.89  51 2.90

  50  0.622  0.426  0.684-  21 2.68   1 2.73  40 2.76   7 2.87  12 2.87  41 2.87  11 2.88  47 2.97

  51  0.614  0.575  0.311-  34 2.67  18 2.69  14 2.74  37 2.87  32 2.87  49 2.90  27 2.91   8 2.98

  52  0.386  0.430  0.687-  16 2.66  40 2.71  45 2.75  12 2.77  41 2.81  22 2.83  31 2.84  53 2.85

  53  0.386  0.572  0.686-  16 2.65  36 2.71  45 2.78  48 2.81  52 2.85  41 2.86   9 2.88  10 2.90

  54  0.384  0.423  0.312-  42 2.67  24 2.76  13 2.77  49 2.78   4 2.79  19 2.92  30 2.92  33 2.92

  55  0.573  0.690  0.616-  35 2.72  36 2.78  38 2.81  48 2.86  10 2.90  28 2.93  26 2.95   7 3.04

  56  0.811  0.483  0.548-  57 1.18  47 1.97  15 2.00
  57  0.869  0.475  0.542-  56 1.18
 
  LATTYP: Found a simple cubic cell.
 ALAT       =    20.0000000000
  
  Lattice vectors:
  
 A1 = (  20.0000000000,   0.0000000000,   0.0000000000)
 A2 = (   0.0000000000,  20.0000000000,   0.0000000000)
 A3 = (   0.0000000000,   0.0000000000,  20.0000000000)


Analysis of symmetry for initial positions (statically):
=====================================================================
 Subroutine PRICEL returns:
 Original cell was already a primitive cell.
 

 Routine SETGRP: Setting up the symmetry group for a 
 simple cubic supercell.


 Subroutine GETGRP returns: Found  1 space group operations
 (whereof  1 operations were pure point group operations)
 out of a pool of 48 trial point group operations.


The static configuration has the point symmetry C_1 .


Analysis of symmetry for dynamics (positions and initial velocities):
=====================================================================
 Subroutine PRICEL returns:
 Original cell was already a primitive cell.
 

 Routine SETGRP: Setting up the symmetry group for a 
 simple cubic supercell.


 Subroutine GETGRP returns: Found  1 space group operations
 (whereof  1 operations were pure point group operations)
 out of a pool of 48 trial point group operations.


The dynamic configuration has the point symmetry C_1 .


 Subroutine INISYM returns: Found  1 space group operations
 (whereof  1 operations are pure point group operations),
 and found     1 'primitive' translations


----------------------------------------------------------------------------------------

                                     Primitive cell                                     

  volume of cell :    8000.0000

  direct lattice vectors                    reciprocal lattice vectors
    20.000000000  0.000000000  0.000000000     0.050000000  0.000000000  0.000000000
     0.000000000 20.000000000  0.000000000     0.000000000  0.050000000  0.000000000
     0.000000000  0.000000000 20.000000000     0.000000000  0.000000000  0.050000000

  length of vectors
    20.000000000 20.000000000 20.000000000     0.050000000  0.050000000  0.050000000

  position of ions in fractional coordinates (direct lattice)
     0.618167345  0.500775537  0.569385774
     0.424345679  0.385270800  0.498775893
     0.573784779  0.390475627  0.496264633
     0.271747924  0.499262734  0.345555958
     0.358725515  0.732040354  0.494091208
     0.646963952  0.273511880  0.487786185
     0.624891014  0.569280464  0.692046693
     0.696864715  0.619411621  0.426320637
     0.308169892  0.616952913  0.573781079
     0.427678398  0.695301697  0.621277833
     0.572970882  0.309089859  0.616258251
     0.500118501  0.433053905  0.608473247
     0.500435452  0.431685939  0.386743307
     0.501270095  0.572483505  0.388328613
     0.730412031  0.491876226  0.489008267
     0.282938758  0.501307524  0.643318546
     0.376998330  0.268205256  0.513109877
     0.495466754  0.631055886  0.281952903
     0.387584540  0.569174780  0.314517860
     0.676240815  0.387125798  0.412266076
     0.679687826  0.377494913  0.572755262
     0.437856972  0.319820661  0.614942953
     0.497030451  0.501182619  0.496458756
     0.381884061  0.500839926  0.426049073
     0.258979001  0.499027185  0.501629757
     0.500940866  0.743529213  0.498533533
     0.617431767  0.429385058  0.299289734
     0.697236200  0.623018400  0.578992661
     0.302531652  0.619846202  0.423549247
     0.303205517  0.376684362  0.424454104
     0.308840375  0.376759863  0.580640937
     0.569473936  0.691915011  0.380181502
     0.423225656  0.301486376  0.382500721
     0.611899912  0.506890102  0.426025019
     0.572228092  0.614517186  0.503390166
     0.498410226  0.573279258  0.609996204
     0.724457763  0.498019518  0.360852515
     0.641891133  0.724564886  0.498808492
     0.504085443  0.271133862  0.499744587
     0.502316677  0.367364575  0.718326533
     0.504141529  0.498828801  0.721208957
     0.497997450  0.362074515  0.279455448
     0.424232884  0.678048281  0.379268491
     0.566138944  0.315089952  0.381379437
     0.383228612  0.498775638  0.568227816
     0.431309409  0.618119827  0.499771432
     0.742873493  0.484334185  0.618940852
     0.504702012  0.634695046  0.728913852
     0.493797389  0.501154894  0.276850765
     0.622320448  0.426163099  0.683624693
     0.614089183  0.574530239  0.310983702
     0.386424529  0.429905733  0.687186067
     0.386200342  0.572205982  0.686257735
     0.384024440  0.423355952  0.312043729
     0.572740591  0.690417003  0.616080132
     0.810743372  0.482888768  0.547809808
     0.868915086  0.474541777  0.541786175

  ion indices of the primitive-cell ions
   primitive index   ion index
                 1           1
                 2           2
                 3           3
                 4           4
                 5           5
                 6           6
                 7           7
                 8           8
                 9           9
                10          10
                11          11
                12          12
                13          13
                14          14
                15          15
                16          16
                17          17
                18          18
                19          19
                20          20
                21          21
                22          22
                23          23
                24          24
                25          25
                26          26
                27          27
                28          28
                29          29
                30          30
                31          31
                32          32
                33          33
                34          34
                35          35
                36          36
                37          37
                38          38
                39          39
                40          40
                41          41
                42          42
                43          43
                44          44
                45          45
                46          46
                47          47
                48          48
                49          49
                50          50
                51          51
                52          52
                53          53
                54          54
                55          55
                56          56
                57          57

----------------------------------------------------------------------------------------

 
 
 KPOINTS: KPOINTS created by Atomic Simulation Env

Automatic generation of k-mesh.
 Grid dimensions read from file:
 generate k-points for:    1    1    1

 Generating k-lattice:

  Cartesian coordinates                     Fractional coordinates (reciprocal lattice)
     0.050000000  0.000000000  0.000000000     1.000000000  0.000000000  0.000000000
     0.000000000  0.050000000  0.000000000     0.000000000  1.000000000  0.000000000
     0.000000000  0.000000000  0.050000000     0.000000000  0.000000000  1.000000000

  Length of vectors
     0.050000000  0.050000000  0.050000000

  Shift w.r.t. Gamma in fractional coordinates (k-lattice)
     0.000000000  0.000000000  0.000000000

 
 Subroutine IBZKPT returns following result:
 ===========================================
 
 Found      1 irreducible k-points:
 
 Following reciprocal coordinates:
            Coordinates               Weight
  0.000000  0.000000  0.000000      1.000000
 
 Following cartesian coordinates:
            Coordinates               Weight
  0.000000  0.000000  0.000000      1.000000
 


--------------------------------------------------------------------------------------------------------




 Dimension of arrays:
   k-points           NKPTS =      1   k-points in BZ     NKDIM =      1   number of bands    NBANDS=    360
   number of dos      NEDOS =    301   number of ions     NIONS =     57
   non local maximal  LDIM  =      6   non local SUM 2l+1 LMDIM =     18
   total plane-waves  NPLWV = ******
   max r-space proj   IRMAX =      1   max aug-charges    IRDMAX=  25995
   dimension x,y,z NGX =   150 NGY =  150 NGZ =  150
   dimension x,y,z NGXF=   300 NGYF=  300 NGZF=  300
   support grid    NGXF=   300 NGYF=  300 NGZF=  300
   ions per type =              11  11  11  11  11   1   1
   NGX,Y,Z   is equivalent  to a cutoff of  12.47, 12.47, 12.47 a.u.
   NGXF,Y,Z  is equivalent  to a cutoff of  24.94, 24.94, 24.94 a.u.

 SYSTEM =  unknown system                          
 POSCAR =  Au Cu Ag Pt Pd  C  O                    

 Startparameter for this run:
   NWRITE =      2    write-flag & timer
   PREC   = accura    normal or accurate (medium, high low for compatibility)
   ISTART =      0    job   : 0-new  1-cont  2-samecut
   ICHARG =      2    charge: 1-file 2-atom 10-const
   ISPIN  =      1    spin polarized calculation?
   LNONCOLLINEAR =      F non collinear calculations
   LSORBIT =      F    spin-orbit coupling
   INIWAV =      1    electr: 0-lowe 1-rand  2-diag
   LASPH  =      F    aspherical Exc in radial PAW
 Electronic Relaxation 1
   ENCUT  =  500.0 eV  36.75 Ry    6.06 a.u.  36.46 36.46 36.46*2*pi/ulx,y,z
   ENINI  =  500.0     initial cutoff
   ENAUG  =  644.9 eV  augmentation charge cutoff
   NELM   =     90;   NELMIN=  5; NELMDL= -5     # of ELM steps 
   EDIFF  = 0.1E-04   stopping-criterion for ELM
   LREAL  =      F    real-space projection
   NLSPLINE    = F    spline interpolate recip. space projectors
   LCOMPAT=      F    compatible to vasp.4.4
   GGA_COMPAT  = T    GGA compatible to vasp.4.4-vasp.4.6
   LMAXPAW     = -100 max onsite density
   LMAXMIX     =    2 max onsite mixed and CHGCAR
   VOSKOWN=      0    Vosko Wilk Nusair interpolation
   ROPT   =    0.00000   0.00000   0.00000   0.00000
   ROPT   =    0.00000   0.00000   0.00000
 Ionic relaxation
   EDIFFG = -.3E-01   stopping-criterion for IOM
   NSW    =    500    number of steps for IOM
   NBLOCK =      1;   KBLOCK =    500    inner block; outer block 
   IBRION =      2    ionic relax: 0-MD 1-quasi-New 2-CG
   NFREE  =      1    steps in history (QN), initial steepest desc. (CG)
   ISIF   =      2    stress and relaxation
   IWAVPR =     11    prediction:  0-non 1-charg 2-wave 3-comb
   ISYM   =      2    0-nonsym 1-usesym 2-fastsym
   LCORR  =      T    Harris-Foulkes like correction to forces

   POTIM  = 0.5000    time-step for ionic-motion
   TEIN   =    0.0    initial temperature
   TEBEG  =    0.0;   TEEND  =   0.0 temperature during run
   SMASS  =  -3.00    Nose mass-parameter (am)
   estimated Nose-frequenzy (Omega)   =  0.10E-29 period in steps = 0.13E+47 mass=  -0.914E-26a.u.
   SCALEE = 1.0000    scale energy and forces
   NPACO  =    256;   APACO  = 10.0  distance and # of slots for P.C.
   PSTRESS=    0.0 pullay stress

  Mass of Ions in am
   POMASS = 196.97 63.55107.87195.08106.42 12.01 16.00
  Ionic Valenz
   ZVAL   =  11.00 11.00 11.00 10.00 10.00  4.00  6.00
  Atomic Wigner-Seitz radii
   RWIGS  =  -1.00 -1.00 -1.00 -1.00 -1.00 -1.00 -1.00
  virtual crystal weights 
   VCA    =   1.00  1.00  1.00  1.00  1.00  1.00  1.00
   NELECT =     593.0000    total number of electrons
   NUPDOWN=      -1.0000    fix difference up-down

 DOS related values:
   EMIN   =  10.00;   EMAX   =-10.00  energy-range for DOS
   EFERMI =   0.00
   ISMEAR =     0;   SIGMA  =   0.10  broadening in eV -4-tet -1-fermi 0-gaus

 Electronic relaxation 2 (details)
   IALGO  =     68    algorithm
   LDIAG  =      T    sub-space diagonalisation (order eigenvalues)
   LSUBROT=      F    optimize rotation matrix (better conditioning)
   TURBO    =      0    0=normal 1=particle mesh
   IRESTART =      0    0=no restart 2=restart with 2 vectors
   NREBOOT  =      0    no. of reboots
   NMIN     =      0    reboot dimension
   EREF     =   0.00    reference energy to select bands
   IMIX   =      4    mixing-type and parameters
     AMIX     =   0.40;   BMIX     =  1.00
     AMIX_MAG =   1.60;   BMIX_MAG =  1.00
     AMIN     =   0.10
     WC   =   100.;   INIMIX=   1;  MIXPRE=   1;  MAXMIX= -45

 Intra band minimization:
   WEIMIN = 0.0010     energy-eigenvalue tresh-hold
   EBREAK =  0.69E-08  absolut break condition
   DEPER  =   0.30     relativ break condition  

   TIME   =   0.40     timestep for ELM

  volume/ion in A,a.u.               =     140.35       947.13
  Fermi-wavevector in a.u.,A,eV,Ry     =   0.687696  1.299557  6.434543  0.472926
  Thomas-Fermi vector in A             =   1.768284
 
 Write flags
   LWAVE        =      F    write WAVECAR
   LDOWNSAMPLE  =      F    k-point downsampling of WAVECAR
   LCHARG       =      F    write CHGCAR
   LVTOT        =      F    write LOCPOT, total local potential
   LVHAR        =      F    write LOCPOT, Hartree potential only
   LELF         =      F    write electronic localiz. function (ELF)
   LORBIT       =      0    0 simple, 1 ext, 2 COOP (PROOUT), +10 PAW based schemes


 Dipole corrections
   LMONO  =      F    monopole corrections only (constant potential shift)
   LDIPOL =      F    correct potential (dipole corrections)
   IDIPOL =      0    1-x, 2-y, 3-z, 4-all directions 
   EPSILON=  1.0000000 bulk dielectric constant

 Exchange correlation treatment:
   GGA     =    RP    GGA type
   LEXCH   =     9    internal setting for exchange type
   LIBXC   =     F    Libxc                    
   VOSKOWN =     0    Vosko Wilk Nusair interpolation
   LHFCALC =     F    Hartree Fock is set to
   LHFONE  =     F    Hartree Fock one center treatment
   AEXX    =    0.0000 exact exchange contribution

 Linear response parameters
   LEPSILON=     F    determine dielectric tensor
   LRPA    =     F    only Hartree local field effects (RPA)
   LNABLA  =     F    use nabla operator in PAW spheres
   LVEL    =     F    velocity operator in full k-point grid
   CSHIFT  =0.1000    complex shift for real part using Kramers Kronig
   OMEGAMAX=  -1.0    maximum frequency
   DEG_THRESHOLD= 0.2000000E-02 threshold for treating states as degnerate
   RTIME   =   -0.100 relaxation time in fs
  (WPLASMAI=    0.000 imaginary part of plasma frequency in eV, 0.658/RTIME)
   DFIELD  = 0.0000000 0.0000000 0.0000000 field for delta impulse in time
 
  Optional k-point grid parameters
   LKPOINTS_OPT  =     F    use optional k-point grid
   KPOINTS_OPT_MODE=     1    mode for optional k-point grid
 
 Orbital magnetization related:
   ORBITALMAG=     F  switch on orbital magnetization
   LCHIMAG   =     F  perturbation theory with respect to B field
   DQ        =  0.001000  dq finite difference perturbation B field
   LLRAUG    =     F  two centre corrections for induced B field



--------------------------------------------------------------------------------------------------------


 conjugate gradient relaxation of ions
 charge density and potential will be updated during run
 non-spin polarized calculation
 RMM-DIIS sequential band-by-band and
  variant of blocked Davidson during initial phase
 perform sub-space diagonalisation
    before iterative eigenvector-optimisation
 modified Broyden-mixing scheme, WC =      100.0
 initial mixing is a Kerker type mixing with AMIX =  0.4000 and BMIX =      1.0000
 Hartree-type preconditioning will be used
 using additional bands           63
 reciprocal scheme for non local part
 use partial core corrections
 calculate Harris-corrections to forces 
   (improved forces if not selfconsistent)
 use gradient corrections 
 use of overlap-Matrix (Vanderbilt PP)
 Gauss-broadening in eV      SIGMA  =   0.10


--------------------------------------------------------------------------------------------------------


  energy-cutoff  :      500.00
  volume of cell :     8000.00
      direct lattice vectors                 reciprocal lattice vectors
    20.000000000  0.000000000  0.000000000     0.050000000  0.000000000  0.000000000
     0.000000000 20.000000000  0.000000000     0.000000000  0.050000000  0.000000000
     0.000000000  0.000000000 20.000000000     0.000000000  0.000000000  0.050000000

  length of vectors
    20.000000000 20.000000000 20.000000000     0.050000000  0.050000000  0.050000000


 
 k-points in units of 2pi/SCALE and weight: KPOINTS created by Atomic Simulation Env
   0.00000000  0.00000000  0.00000000       1.000
 
 k-points in reciprocal lattice and weights: KPOINTS created by Atomic Simulation Env
   0.00000000  0.00000000  0.00000000       1.000
 
 position of ions in fractional coordinates (direct lattice) 
   0.61816735  0.50077554  0.56938577
   0.42434568  0.38527080  0.49877589
   0.57378478  0.39047563  0.49626463
   0.27174792  0.49926273  0.34555596
   0.35872552  0.73204035  0.49409121
   0.64696395  0.27351188  0.48778619
   0.62489101  0.56928046  0.69204669
   0.69686471  0.61941162  0.42632064
   0.30816989  0.61695291  0.57378108
   0.42767840  0.69530170  0.62127783
   0.57297088  0.30908986  0.61625825
   0.50011850  0.43305391  0.60847325
   0.50043545  0.43168594  0.38674331
   0.50127009  0.57248350  0.38832861
   0.73041203  0.49187623  0.48900827
   0.28293876  0.50130752  0.64331855
   0.37699833  0.26820526  0.51310988
   0.49546675  0.63105589  0.28195290
   0.38758454  0.56917478  0.31451786
   0.67624081  0.38712580  0.41226608
   0.67968783  0.37749491  0.57275526
   0.43785697  0.31982066  0.61494295
   0.49703045  0.50118262  0.49645876
   0.38188406  0.50083993  0.42604907
   0.25897900  0.49902719  0.50162976
   0.50094087  0.74352921  0.49853353
   0.61743177  0.42938506  0.29928973
   0.69723620  0.62301840  0.57899266
   0.30253165  0.61984620  0.42354925
   0.30320552  0.37668436  0.42445410
   0.30884038  0.37675986  0.58064094
   0.56947394  0.69191501  0.38018150
   0.42322566  0.30148638  0.38250072
   0.61189991  0.50689010  0.42602502
   0.57222809  0.61451719  0.50339017
   0.49841023  0.57327926  0.60999620
   0.72445776  0.49801952  0.36085251
   0.64189113  0.72456489  0.49880849
   0.50408544  0.27113386  0.49974459
   0.50231668  0.36736457  0.71832653
   0.50414153  0.49882880  0.72120896
   0.49799745  0.36207451  0.27945545
   0.42423288  0.67804828  0.37926849
   0.56613894  0.31508995  0.38137944
   0.38322861  0.49877564  0.56822782
   0.43130941  0.61811983  0.49977143
   0.74287349  0.48433418  0.61894085
   0.50470201  0.63469505  0.72891385
   0.49379739  0.50115489  0.27685077
   0.62232045  0.42616310  0.68362469
   0.61408918  0.57453024  0.31098370
   0.38642453  0.42990573  0.68718607
   0.38620034  0.57220598  0.68625774
   0.38402444  0.42335595  0.31204373
   0.57274059  0.69041700  0.61608013
   0.81074337  0.48288877  0.54780981
   0.86891509  0.47454178  0.54178617
 
 position of ions in cartesian coordinates  (Angst):
  12.36334691 10.01551073 11.38771549
   8.48691358  7.70541599  9.97551786
  11.47569558  7.80951254  9.92529266
   5.43495848  9.98525468  6.91111917
   7.17451030 14.64080708  9.88182416
  12.93927904  5.47023760  9.75572371
  12.49782028 11.38560928 13.84093386
  13.93729429 12.38823242  8.52641273
   6.16339783 12.33905826 11.47562157
   8.55356795 13.90603395 12.42555667
  11.45941764  6.18179719 12.32516501
  10.00237002  8.66107810 12.16946493
  10.00870903  8.63371878  7.73486614
  10.02540190 11.44967009  7.76657226
  14.60824061  9.83752452  9.78016533
   5.65877515 10.02615048 12.86637091
   7.53996661  5.36410512 10.26219754
   9.90933509 12.62111771  5.63905806
   7.75169080 11.38349559  6.29035720
  13.52481630  7.74251595  8.24532152
  13.59375652  7.54989826 11.45510524
   8.75713944  6.39641323 12.29885906
   9.94060903 10.02365239  9.92917511
   7.63768122 10.01679852  8.52098146
   5.17958002  9.98054371 10.03259513
  10.01881732 14.87058427  9.97067066
  12.34863533  8.58770116  5.98579469
  13.94472401 12.46036801 11.57985323
   6.05063303 12.39692403  8.47098494
   6.06411034  7.53368724  8.48908208
   6.17680750  7.53519725 11.61281874
  11.38947873 13.83830023  7.60363003
   8.46451312  6.02972751  7.65001443
  12.23799825 10.13780203  8.52050038
  11.44456184 12.29034372 10.06780331
   9.96820452 11.46558516 12.19992409
  14.48915526  9.96039036  7.21705030
  12.83782266 14.49129771  9.97616984
  10.08170886  5.42267724  9.99489174
  10.04633355  7.34729150 14.36653066
  10.08283057  9.97657602 14.42417914
   9.95994899  7.24149029  5.58910896
   8.48465767 13.56096561  7.58536982
  11.32277889  6.30179905  7.62758874
   7.66457223  9.97551277 11.36455632
   8.62618817 12.36239653  9.99542863
  14.85746986  9.68668370 12.37881704
  10.09404024 12.69390092 14.57827704
   9.87594778 10.02309788  5.53701530
  12.44640895  8.52326197 13.67249386
  12.28178365 11.49060477  6.21967405
   7.72849059  8.59811465 13.74372134
   7.72400684 11.44411964 13.72515471
   7.68048881  8.46711904  6.24087457
  11.45481183 13.80834007 12.32160264
  16.21486745  9.65777535 10.95619617
  17.37830172  9.49083555 10.83572349
 


--------------------------------------------------------------------------------------------------------


 k-point   1 :   0.0000 0.0000 0.0000  plane waves:  203269

 maximum and minimum number of plane-waves per node :     12716    12694

 maximum number of plane-waves:    203269
 maximum index in each direction: 
   IXMAX=   36   IYMAX=   36   IZMAX=   36
   IXMIN=  -36   IYMIN=  -36   IZMIN=  -36


 total amount of memory used by VASP MPI-rank0   105908. kBytes
=======================================================================

   base      :      30000. kBytes
   nonl-proj :      24407. kBytes
   fftplans  :      13383. kBytes
   grid      :      28852. kBytes
   one-center:         62. kBytes
   wavefun   :       9204. kBytes
 
     INWAV:  cpu time      0.0000: real time      0.0000
 Broyden mixing: mesh for mixing (old mesh)
   NGX = 73   NGY = 73   NGZ = 73
  (NGX  =300   NGY  =300   NGZ  =300)
  gives a total of 389017 points

 initial charge density was supplied:
 charge density of overlapping atoms calculated
 number of electron     593.0000000 magnetization 
 keeping initial charge density in first step


--------------------------------------------------------------------------------------------------------


 Maximum index for augmentation-charges          208 (set IRDMAX)


--------------------------------------------------------------------------------------------------------


 First call to EWALD:  gamma=   0.089
 Maximum number of real-space cells 3x 3x 3
 Maximum number of reciprocal cells 3x 3x 3

    FEWALD:  cpu time      0.0030: real time      0.0030


--------------------------------------- Iteration      1(   1)  ---------------------------------------


    POTLOK:  cpu time      0.3012: real time      0.5202
    SETDIJ:  cpu time      0.0081: real time      0.0090
     EDDAV:  cpu time     11.2069: real time     11.4326
       DOS:  cpu time      0.0012: real time      0.0015
    --------------------------------------------
      LOOP:  cpu time     11.5175: real time     11.9634

 eigenvalue-minimisations  :   720
 total energy-change (2. order) : 0.4513677E+04  (-0.1844740E+05)
 number of electron     593.0000000 magnetization 
 augmentation part      593.0000000 magnetization 

 Free energy of the ion-electron system (eV)
  ---------------------------------------------------
  alpha Z        PSCENC =       337.48862869
  Ewald energy   TEWEN  =    141945.61416405
  -Hartree energ DENC   =   -194073.59669822
  -exchange      EXHF   =         0.00000000
  -V(xc)+E(xc)   XCENC  =       255.06271081
  PAW double counting   =     51190.70284042   -50545.41323779
  entropy T*S    EENTRO =        -0.27198135
  eigenvalues    EBANDS =      1040.73837310
  atomic energy  EATOM  =     54363.35213531
  Solvation  Ediel_sol  =         0.00000000
  ---------------------------------------------------
  free energy    TOTEN  =      4513.67693501 eV

  energy without entropy =     4513.94891636  energy(sigma->0) =     4513.81292569


--------------------------------------------------------------------------------------------------------




--------------------------------------- Iteration      1(   2)  ---------------------------------------


     EDDAV:  cpu time     12.5760: real time     12.6904
       DOS:  cpu time      0.0015: real time      0.0015
    --------------------------------------------
      LOOP:  cpu time     12.5775: real time     12.6919

 eigenvalue-minimisations  :   864
 total energy-change (2. order) :-0.3766923E+04  (-0.3255870E+04)
 number of electron     593.0000000 magnetization 
 augmentation part      593.0000000 magnetization 

 Free energy of the ion-electron system (eV)
  ---------------------------------------------------
  alpha Z        PSCENC =       337.48862869
  Ewald energy   TEWEN  =    141945.61416405
  -Hartree energ DENC   =   -194073.59669822
  -exchange      EXHF   =         0.00000000
  -V(xc)+E(xc)   XCENC  =       255.06271081
  PAW double counting   =     51190.70284042   -50545.41323779
  entropy T*S    EENTRO =        -0.10423857
  eigenvalues    EBANDS =     -2726.35215684
  atomic energy  EATOM  =     54363.35213531
  Solvation  Ediel_sol  =         0.00000000
  ---------------------------------------------------
  free energy    TOTEN  =       746.75414786 eV

  energy without entropy =      746.85838642  energy(sigma->0) =      746.80626714


--------------------------------------------------------------------------------------------------------




--------------------------------------- Iteration      1(   3)  ---------------------------------------


     EDDAV:  cpu time     14.5386: real time     14.6290
       DOS:  cpu time      0.0006: real time      0.0006
    --------------------------------------------
      LOOP:  cpu time     14.5392: real time     14.6296

 eigenvalue-minimisations  :  1040
 total energy-change (2. order) :-0.8449599E+03  (-0.7945606E+03)
 number of electron     593.0000000 magnetization 
 augmentation part      593.0000000 magnetization 

 Free energy of the ion-electron system (eV)
  ---------------------------------------------------
  alpha Z        PSCENC =       337.48862869
  Ewald energy   TEWEN  =    141945.61416405
  -Hartree energ DENC   =   -194073.59669822
  -exchange      EXHF   =         0.00000000
  -V(xc)+E(xc)   XCENC  =       255.06271081
  PAW double counting   =     51190.70284042   -50545.41323779
  entropy T*S    EENTRO =        -0.10884727
  eigenvalues    EBANDS =     -3571.30740892
  atomic energy  EATOM  =     54363.35213531
  Solvation  Ediel_sol  =         0.00000000
  ---------------------------------------------------
  free energy    TOTEN  =       -98.20571292 eV

  energy without entropy =      -98.09686565  energy(sigma->0) =      -98.15128929


--------------------------------------------------------------------------------------------------------




--------------------------------------- Iteration      1(   4)  ---------------------------------------


     EDDAV:  cpu time     16.1044: real time     16.2043
       DOS:  cpu time      0.0006: real time      0.0007
    --------------------------------------------
      LOOP:  cpu time     16.1050: real time     16.2049

 eigenvalue-minimisations  :  1184
 total energy-change (2. order) :-0.1035929E+03  (-0.9121946E+02)
 number of electron     593.0000000 magnetization 
 augmentation part      593.0000000 magnetization 

 Free energy of the ion-electron system (eV)
  ---------------------------------------------------
  alpha Z        PSCENC =       337.48862869
  Ewald energy   TEWEN  =    141945.61416405
  -Hartree energ DENC   =   -194073.59669822
  -exchange      EXHF   =         0.00000000
  -V(xc)+E(xc)   XCENC  =       255.06271081
  PAW double counting   =     51190.70284042   -50545.41323779
  entropy T*S    EENTRO =        -0.24297605
  eigenvalues    EBANDS =     -3674.76614156
  atomic energy  EATOM  =     54363.35213531
  Solvation  Ediel_sol  =         0.00000000
  ---------------------------------------------------
  free energy    TOTEN  =      -201.79857434 eV

  energy without entropy =     -201.55559829  energy(sigma->0) =     -201.67708632


--------------------------------------------------------------------------------------------------------




--------------------------------------- Iteration      1(   5)  ---------------------------------------


     EDDAV:  cpu time     15.9643: real time     16.0652
       DOS:  cpu time      0.0031: real time      0.0031
    CHARGE:  cpu time      0.6772: real time      0.6814
    MIXING:  cpu time      0.0073: real time      0.0073
    --------------------------------------------
      LOOP:  cpu time     16.6519: real time     16.7570

 eigenvalue-minimisations  :  1168
 total energy-change (2. order) :-0.6484196E+01  (-0.6184146E+01)
 number of electron     592.9999995 magnetization 
 augmentation part      253.5961649 magnetization 

 Broyden mixing:
  rms(total) = 0.54339E+01    rms(broyden)= 0.54337E+01
  rms(prec ) = 0.58038E+01
  weight for this iteration     100.00

 Free energy of the ion-electron system (eV)
  ---------------------------------------------------
  alpha Z        PSCENC =       337.48862869
  Ewald energy   TEWEN  =    141945.61416405
  -Hartree energ DENC   =   -194073.59669822
  -exchange      EXHF   =         0.00000000
  -V(xc)+E(xc)   XCENC  =       255.06271081
  PAW double counting   =     51190.70284042   -50545.41323779
  entropy T*S    EENTRO =        -0.26672756
  eigenvalues    EBANDS =     -3681.22658583
  atomic energy  EATOM  =     54363.35213531
  Solvation  Ediel_sol  =         0.00000000
  ---------------------------------------------------
  free energy    TOTEN  =      -208.28277012 eV

  energy without entropy =     -208.01604256  energy(sigma->0) =     -208.14940634


--------------------------------------------------------------------------------------------------------




--------------------------------------- Iteration      1(   6)  ---------------------------------------


    POTLOK:  cpu time      0.2983: real time      0.3003
    SETDIJ:  cpu time      0.0054: real time      0.0055
    EDDIAG:  cpu time      2.2427: real time      2.2588
  RMM-DIIS:  cpu time     11.0877: real time     11.1599
    ORTHCH:  cpu time      0.1554: real time      0.1564
       DOS:  cpu time      0.0013: real time      0.0013
    CHARGE:  cpu time      0.6766: real time      0.6806
    MIXING:  cpu time      0.0094: real time      0.0795
    --------------------------------------------
      LOOP:  cpu time     14.4769: real time     14.6424

 eigenvalue-minimisations  :   927
 total energy-change (2. order) :-0.2873737E+02  (-0.3397811E+02)
 number of electron     592.9999996 magnetization 
 augmentation part      259.9141064 magnetization 

 Broyden mixing:
  rms(total) = 0.53907E+01    rms(broyden)= 0.53905E+01
  rms(prec ) = 0.64801E+01
  weight for this iteration     100.00

 eigenvalues of (default mixing * dielectric matrix)
  average eigenvalue GAMMA=   0.5190
  0.5190

 Free energy of the ion-electron system (eV)
  ---------------------------------------------------
  alpha Z        PSCENC =       337.48862869
  Ewald energy   TEWEN  =    141945.61416405
  -Hartree energ DENC   =   -193644.35113718
  -exchange      EXHF   =         0.00000000
  -V(xc)+E(xc)   XCENC  =       232.45806702
  PAW double counting   =     53526.98682613   -52821.11928447
  entropy T*S    EENTRO =        -0.26380148
  eigenvalues    EBANDS =     -4177.18573908
  atomic energy  EATOM  =     54363.35213531
  Solvation  Ediel_sol  =         0.00000000
  ---------------------------------------------------
  free energy    TOTEN  =      -237.02014101 eV

  energy without entropy =     -236.75633953  energy(sigma->0) =     -236.88824027


--------------------------------------------------------------------------------------------------------




--------------------------------------- Iteration      1(   7)  ---------------------------------------


    POTLOK:  cpu time      0.2997: real time      0.3021
    SETDIJ:  cpu time      0.0055: real time      0.0055
    EDDIAG:  cpu time      2.2412: real time      2.2569
  RMM-DIIS:  cpu time      8.4719: real time      8.5267
    ORTHCH:  cpu time      0.1479: real time      0.1493
       DOS:  cpu time      0.0043: real time      0.0043
[...]
  4.746   0.085   0.270  -0.034  -0.195  -2.716  -0.224  -0.264   0.023   0.175   0.183  -0.013   0.087  -0.000  -0.017  -0.003
  0.085   5.170   0.138  -0.030   0.057  -0.224  -3.117  -0.116   0.053  -0.061  -0.044   0.088   0.021  -0.021   0.004  -0.003
  0.270   0.138   5.214  -0.082  -0.090  -0.265  -0.116  -3.158   0.042   0.139  -0.108  -0.017   0.011   0.002  -0.004  -0.001
 -0.034  -0.030  -0.082   4.945   0.257   0.023   0.053   0.042  -2.829  -0.215  -0.468   0.105   0.012   0.050  -0.020  -0.001
 -0.195   0.057  -0.090   0.257   5.106   0.175  -0.060   0.139  -0.215  -3.022  -0.061   0.030   0.002  -0.021  -0.024  -0.003
 -2.716  -0.224  -0.265   0.023   0.175   2.608   0.331   0.258  -0.015  -0.157  -0.178   0.029  -0.080  -0.002   0.004   0.003
 -0.224  -3.117  -0.116   0.053  -0.060   0.331   2.987   0.097  -0.070   0.062   0.023  -0.068  -0.028   0.005  -0.005   0.002
 -0.264  -0.116  -3.158   0.042   0.139   0.258   0.097   3.023  -0.011  -0.181   0.089   0.007  -0.005  -0.004   0.005  -0.000
  0.023   0.053   0.042  -2.829  -0.215  -0.015  -0.070  -0.011   2.660   0.185   0.427  -0.106  -0.010  -0.037   0.013   0.001
  0.175  -0.061   0.139  -0.215  -3.022  -0.157   0.062  -0.181   0.185   2.881   0.070  -0.030   0.006   0.020   0.033  -0.000
  0.183  -0.044  -0.108  -0.468  -0.061  -0.178   0.023   0.089   0.427   0.070   2.861  -0.740  -0.019  -0.023  -0.009   0.001
 -0.013   0.088  -0.017   0.105   0.030   0.029  -0.068   0.007  -0.106  -0.030  -0.740   0.219  -0.003   0.012   0.012  -0.000
  0.087   0.021   0.011   0.012   0.002  -0.080  -0.028  -0.005  -0.010   0.006  -0.019  -0.003   0.199  -0.006  -0.014  -0.007
 -0.000  -0.021   0.002   0.050  -0.021  -0.002   0.005  -0.004  -0.037   0.020  -0.023   0.012  -0.006   0.213   0.023  -0.000
 -0.017   0.004  -0.004  -0.020  -0.024   0.004  -0.005   0.005   0.013   0.033  -0.009   0.012  -0.014   0.023   0.198   0.000
 -0.003  -0.003  -0.001  -0.001  -0.003   0.003   0.002  -0.000   0.001  -0.000   0.001  -0.000  -0.007  -0.000   0.000   0.000
 -0.000   0.005  -0.000  -0.005  -0.001   0.000  -0.001   0.000   0.003  -0.000   0.002  -0.001  -0.000  -0.008  -0.001   0.000
  0.003  -0.000   0.001  -0.004  -0.002  -0.000   0.000  -0.000   0.002   0.001   0.001  -0.001   0.000  -0.001  -0.008  -0.000


------------------------ aborting loop because EDIFF is reached ----------------------------------------


    CHARGE:  cpu time      0.6649: real time      0.6689
    FORLOC:  cpu time      0.0406: real time      0.0408
    FORNL :  cpu time      2.7916: real time      2.8066
    STRESS:  cpu time      5.6011: real time      5.6323
    FORCOR:  cpu time      0.3248: real time      0.3267
    FORHAR:  cpu time      0.1037: real time      0.1049
    MIXING:  cpu time      0.0134: real time      0.0135
    OFIELD:  cpu time      0.0001: real time      0.0000

  FORCE on cell =-STRESS in cart. coord.  units (eV):
  Direction    XX          YY          ZZ          XY          YZ          ZX
  --------------------------------------------------------------------------------------
  Alpha Z   337.48863   337.48863   337.48863
  Ewald   55185.44856 44952.03317 41807.97147  -368.82847    85.44907   872.56246
  Hartree 72044.54244 62511.69618 59551.77023  -335.13045    -5.95227   832.46862
  E(xc)   -3001.64137 -3004.59084 -3005.50355    -0.39198     0.19189    -0.69866
  Local  ************************************   698.40240   -81.67343 -1722.46664
  n-local  -478.22148  -480.17663  -478.79823     2.67069    -0.60159     0.17383
  augment  4184.77606  4187.91157  4189.62349     0.08092     1.05762     4.95525
  Kinetic  7478.25421  7508.14861  7512.38931     3.14736     1.41568    13.22504
  Fock        0.00000     0.00000     0.00000     0.00000     0.00000     0.00000
  -------------------------------------------------------------------------------------
  Total      -0.69230    -0.84107    -0.68449    -0.04953    -0.11302     0.21990
  in kB      -0.13865    -0.16844    -0.13708    -0.00992    -0.02264     0.04404
  external pressure =       -0.15 kB  Pullay stress =        0.00 kB


 VOLUME and BASIS-vectors are now :
 -----------------------------------------------------------------------------
  energy-cutoff  :      500.00
  volume of cell :     8000.00
      direct lattice vectors                 reciprocal lattice vectors
    20.000000000  0.000000000  0.000000000     0.050000000  0.000000000  0.000000000
     0.000000000 20.000000000  0.000000000     0.000000000  0.050000000  0.000000000
     0.000000000  0.000000000 20.000000000     0.000000000  0.000000000  0.050000000

  length of vectors
    20.000000000 20.000000000 20.000000000     0.050000000  0.050000000  0.050000000


 FORCES acting on ions
    electron-ion (+dipol)            ewald-force                    non-local-force                 convergence-correction
 -----------------------------------------------------------------------------------------------
   -.902E+03 -.121E+03 -.643E+03   0.902E+03 0.120E+03 0.643E+03   -.632E+00 0.993E+00 0.169E+00   0.327E-03 -.274E-03 -.207E-03
   0.684E+03 0.905E+03 0.527E+02   -.684E+03 -.904E+03 -.520E+02   0.108E+00 -.772E+00 -.704E+00   -.183E-04 -.259E-03 -.201E-03
   -.557E+03 0.932E+03 0.134E+02   0.557E+03 -.931E+03 -.141E+02   -.110E+00 -.908E+00 0.754E+00   0.952E-04 -.144E-03 -.256E-03
   0.157E+04 0.173E+02 0.107E+04   -.157E+04 -.176E+02 -.107E+04   -.389E+01 0.301E+00 -.134E+01   0.984E-04 -.631E-04 -.864E-04
   0.994E+03 -.159E+04 0.176E+02   -.992E+03 0.159E+04 -.187E+02   -.240E+01 0.289E+01 0.108E+01   -.222E-03 0.220E-03 -.150E-03
   -.104E+04 0.166E+04 0.898E+02   0.104E+04 -.166E+04 -.909E+02   0.214E+01 -.312E+01 0.115E+01   -.753E-04 0.556E-04 -.215E-03
   -.950E+03 -.571E+03 -.153E+04   0.949E+03 0.570E+03 0.153E+04   0.778E+00 0.998E+00 0.104E+01   0.542E-03 -.203E-03 0.482E-04
   -.147E+04 -.101E+04 0.605E+03   0.147E+04 0.101E+04 -.605E+03   0.103E+01 0.745E+00 -.343E+00   -.622E-04 -.647E-04 -.282E-04
   0.147E+04 -.976E+03 -.595E+03   -.146E+04 0.974E+03 0.595E+03   -.864E+00 0.232E+01 -.108E+00   -.483E-03 0.328E-06 -.595E-04
   0.570E+03 -.149E+04 -.976E+03   -.568E+03 0.149E+04 0.976E+03   -.133E+01 0.198E+01 0.251E+00   -.249E-03 0.561E-03 -.647E-04
   -.590E+03 0.159E+04 -.991E+03   0.589E+03 -.158E+04 0.991E+03   0.760E+00 -.147E+01 -.242E+00   0.780E-04 0.501E-04 -.112E-03
   -.682E+00 0.495E+03 -.941E+03   -.868E+00 -.494E+03 0.943E+03   0.155E+01 -.684E+00 -.244E+01   0.154E-03 -.525E-03 -.170E-03
   0.303E+02 0.612E+03 0.944E+03   -.300E+02 -.612E+03 -.947E+03   -.289E+00 -.199E+00 0.229E+01   0.150E-03 -.399E-03 -.281E-03
   -.405E+02 -.635E+03 0.831E+03   0.411E+02 0.635E+03 -.832E+03   -.603E+00 -.305E+00 0.108E+01   0.952E-04 -.161E-03 -.387E-03
   -.161E+04 0.625E+01 0.167E+03   0.161E+04 -.675E+01 -.169E+03   -.731E+00 0.521E+00 0.211E+01   -.220E-03 -.378E-04 -.157E-03
   0.162E+04 -.161E+02 -.112E+04   -.161E+04 0.159E+02 0.112E+04   -.851E+01 0.162E+00 0.252E+01   -.212E-03 -.239E-03 0.411E-05
   0.101E+04 0.172E+04 -.884E+02   -.998E+03 -.172E+04 0.892E+02   -.769E+01 -.532E+01 -.727E+00   -.704E-04 -.797E-04 -.209E-03
   -.621E+01 -.110E+04 0.178E+04   0.580E+01 0.110E+04 -.177E+04   0.408E+00 0.452E+01 -.734E+01   -.627E-04 -.886E-05 -.351E-03
   0.102E+04 -.573E+03 0.156E+04   -.101E+04 0.573E+03 -.156E+04   -.422E+01 0.261E+00 -.242E+01   -.392E-04 -.508E-04 -.302E-03
   -.144E+04 0.100E+04 0.744E+03   0.144E+04 -.100E+04 -.745E+03   0.335E+01 -.265E+01 0.131E+01   -.179E-03 -.749E-04 -.145E-03
   -.143E+04 0.107E+04 -.625E+03   0.142E+04 -.107E+04 0.628E+03   0.433E+01 -.212E+01 -.244E+01   0.436E-04 -.615E-04 -.816E-04
   0.570E+03 0.152E+04 -.104E+04   -.568E+03 -.152E+04 0.104E+04   -.152E+01 -.175E+01 0.126E+01   -.208E-04 -.628E-04 -.147E-03
   0.593E+02 -.685E+02 -.397E+02   -.597E+02 0.695E+02 0.396E+02   0.328E+00 -.997E+00 0.124E+00   0.275E-03 -.477E-03 -.352E-03
   0.104E+04 0.194E+01 0.530E+03   -.104E+04 -.241E+01 -.530E+03   -.105E+01 0.470E+00 -.301E+00   -.166E-03 -.239E-03 -.381E-03
   0.181E+04 0.192E+02 -.445E+01   -.181E+04 -.187E+02 0.549E+01   -.401E+01 -.552E+00 -.103E+01   -.139E-03 -.127E-03 -.405E-04
   -.556E+01 -.182E+04 -.518E+01   0.622E+01 0.181E+04 0.537E+01   -.664E+00 0.353E+01 -.197E+00   0.152E-03 0.201E-03 -.191E-03
   -.907E+03 0.546E+03 0.164E+04   0.906E+03 -.545E+03 -.164E+04   0.172E+01 -.695E+00 -.291E+01   -.157E-03 -.241E-03 0.430E-04
   -.143E+04 -.994E+03 -.654E+03   0.142E+04 0.994E+03 0.653E+03   0.419E+01 -.514E-01 0.693E+00   0.180E-03 0.116E-04 -.165E-03
   0.152E+04 -.947E+03 0.554E+03   -.152E+04 0.947E+03 -.554E+03   -.380E+01 0.713E+00 -.685E+00   -.185E-03 -.255E-04 -.260E-03
   0.152E+04 0.976E+03 0.559E+03   -.152E+04 -.974E+03 -.559E+03   -.337E+01 -.158E+01 -.114E+00   0.102E-04 -.134E-03 -.108E-03
   0.152E+04 0.979E+03 -.637E+03   -.152E+04 -.976E+03 0.637E+03   -.356E+01 -.254E+01 -.124E+00   -.151E-03 -.492E-04 -.329E-04
   -.589E+03 -.157E+04 0.935E+03   0.588E+03 0.157E+04 -.934E+03   0.158E+01 0.300E+01 -.141E+01   0.176E-03 0.122E-03 -.187E-03
   0.628E+03 0.155E+04 0.955E+03   -.626E+03 -.155E+04 -.954E+03   -.170E+01 -.283E+01 -.136E+01   0.152E-03 0.435E-04 -.169E-03
   -.819E+03 -.112E+03 0.563E+03   0.818E+03 0.113E+03 -.563E+03   0.302E+00 -.169E+00 0.453E-02   0.218E-03 -.196E-03 -.717E-04
   -.537E+03 -.917E+03 -.634E+02   0.536E+03 0.916E+03 0.640E+02   0.108E+01 0.311E+00 -.577E+00   0.475E-03 0.468E-04 -.313E-03
   0.153E+02 -.615E+03 -.869E+03   -.161E+02 0.615E+03 0.869E+03   0.776E+00 0.165E+00 0.298E+00   0.258E-03 -.171E-03 -.270E-03
   -.147E+04 -.355E+02 0.106E+04   0.146E+04 0.348E+02 -.105E+04   0.485E+01 0.658E+00 -.438E+01   -.128E-03 -.555E-04 0.187E-04
   -.919E+03 -.148E+04 -.481E+00   0.916E+03 0.148E+04 0.745E+00   0.301E+01 0.519E+01 -.267E+00   0.154E-03 0.194E-04 -.152E-03
   -.697E+02 0.171E+04 0.193E+02   0.680E+02 -.171E+04 -.189E+02   0.165E+01 -.215E+01 -.347E+00   0.184E-04 0.968E-04 -.202E-03
   -.131E+02 0.932E+03 -.161E+04   0.127E+02 -.929E+03 0.160E+04   0.406E+00 -.366E+01 0.439E+01   0.406E-04 -.203E-03 -.769E-04
   -.212E+02 -.322E+02 -.171E+04   0.205E+02 0.320E+02 0.171E+04   0.764E+00 0.161E+00 0.233E+01   0.189E-03 -.456E-03 0.728E-04
   0.286E+02 0.976E+03 0.156E+04   -.285E+02 -.974E+03 -.155E+04   -.102E+00 -.244E+01 -.519E+01   0.106E-03 -.984E-04 0.168E-03
   0.593E+03 -.143E+04 0.844E+03   -.592E+03 0.142E+04 -.844E+03   -.773E+00 0.370E+01 -.297E+00   -.119E-03 0.105E-03 -.411E-03
   -.476E+03 0.143E+04 0.915E+03   0.475E+03 -.143E+04 -.915E+03   0.793E+00 -.176E+01 -.412E+00   0.918E-06 -.282E-04 -.262E-03
   0.877E+03 -.379E+02 -.502E+03   -.877E+03 0.377E+02 0.502E+03   -.440E+00 0.259E+00 -.523E+00   -.414E-03 -.440E-03 -.871E-04
   0.548E+03 -.921E+03 -.668E+02   -.547E+03 0.920E+03 0.664E+02   -.965E+00 0.699E+00 0.424E+00   -.143E-03 0.109E-03 -.324E-03
   -.134E+04 0.470E+02 -.101E+04   0.134E+04 -.478E+02 0.100E+04   0.758E+00 0.812E+00 0.496E+01   0.140E-05 -.410E-04 0.635E-04
   -.203E+02 -.901E+03 -.150E+04   0.202E+02 0.897E+03 0.149E+04   0.121E+00 0.372E+01 0.496E+01   0.157E-03 0.369E-03 0.433E-03
   0.186E+02 0.438E+02 0.176E+04   -.192E+02 -.433E+02 -.176E+04   0.632E+00 -.466E+00 -.312E+01   -.625E-04 -.133E-03 -.183E-03
   -.872E+03 0.516E+03 -.145E+04   0.871E+03 -.515E+03 0.145E+04   0.113E+01 -.798E+00 0.281E+01   0.228E-03 -.140E-03 -.462E-04
   -.898E+03 -.580E+03 0.143E+04   0.896E+03 0.579E+03 -.143E+04   0.256E+01 0.158E+01 -.304E+01   0.509E-04 -.545E-04 -.136E-03
   0.852E+03 0.518E+03 -.146E+04   -.850E+03 -.516E+03 0.146E+04   -.157E+01 -.165E+01 0.248E+01   -.309E-03 -.276E-03 -.260E-04
   0.812E+03 -.575E+03 -.141E+04   -.810E+03 0.573E+03 0.141E+04   -.182E+01 0.172E+01 0.282E+01   -.579E-03 -.171E-03 0.777E-04
   0.883E+03 0.606E+03 0.140E+04   -.880E+03 -.605E+03 -.139E+04   -.256E+01 -.895E+00 -.152E+01   0.724E-04 -.752E-04 -.107E-03
   -.508E+03 -.137E+04 -.889E+03   0.507E+03 0.136E+04 0.886E+03   0.116E+01 0.287E+01 0.233E+01   0.348E-03 0.313E-03 -.185E-03
   -.463E+03 0.822E+01 -.102E+03   0.449E+03 -.563E+01 0.103E+03   0.144E+02 -.260E+01 -.918E+00   -.636E-04 -.247E-04 0.131E-04
   -.817E+03 0.866E+02 -.602E+02   0.872E+03 -.945E+02 0.542E+02   -.555E+02 0.787E+01 0.605E+01   -.125E-03 -.395E-04 0.399E-04
 -----------------------------------------------------------------------------------------------
   0.579E+02 -.800E+01 -.283E+01   -.682E-12 0.398E-12 0.205E-11   -.579E+02 0.801E+01 0.284E+01   0.190E-03 -.428E-02 -.736E-02
 
 
 POSITION                                       TOTAL-FORCE (eV/Angst)
 -----------------------------------------------------------------------------------
     12.36335     10.01551     11.38772        -0.006091     -0.004435      0.001106
      8.48691      7.70542      9.97552        -0.006291      0.001067     -0.001473
     11.47570      7.80951      9.92529        -0.006685     -0.002195     -0.002219
      5.43496      9.98525      6.91112         0.001139      0.004063     -0.013871
      7.17451     14.64081      9.88182        -0.005038     -0.000667     -0.001117
     12.93928      5.47024      9.75572        -0.007331     -0.006901     -0.009405
     12.49782     11.38561     13.84093         0.009449      0.001162     -0.006380
     13.93729     12.38823      8.52641         0.003723     -0.000615      0.009113
      6.16340     12.33906     11.47562        -0.000161     -0.002246      0.003896
      8.55357     13.90603     12.42556        -0.002050     -0.000689     -0.003643
     11.45942      6.18180     12.32517         0.002304     -0.000979     -0.004571
     10.00237      8.66108     12.16946         0.000250     -0.000693     -0.003072
     10.00871      8.63372      7.73487        -0.003290      0.001131     -0.004615
     10.02540     11.44967      7.76657        -0.001039      0.000075     -0.004114
     14.60824      9.83752      9.78017         0.002738      0.021972      0.017364
      5.65878     10.02615     12.86637         0.003859     -0.002043      0.007718
      7.53997      5.36411     10.26220        -0.004131      0.003014      0.007364
      9.90934     12.62112      5.63906        -0.000749     -0.000424     -0.002541
      7.75169     11.38350      6.29036         0.001300     -0.001836     -0.001752
     13.52482      7.74252      8.24532         0.005718      0.000725      0.014618
     13.59376      7.54990     11.45511         0.001643     -0.003282     -0.013612
      8.75714      6.39641     12.29886         0.001710      0.004123      0.002070
      9.94061     10.02365      9.92918        -0.005403     -0.000837     -0.002413
      7.63768     10.01680      8.52098        -0.008755      0.000603      0.000898
      5.17958      9.98054     10.03260        -0.002357     -0.004005      0.007401
     10.01882     14.87058      9.97067        -0.004368     -0.002487     -0.005616
     12.34864      8.58770      5.98579         0.005165     -0.001709      0.010991
     13.94472     12.46037     11.57985         0.002033     -0.006916     -0.012240
      6.05063     12.39692      8.47098        -0.006148     -0.000338      0.001067
      6.06411      7.53369      8.48908        -0.004213      0.003786     -0.002707
      6.17681      7.53520     11.61282         0.001179      0.001850      0.011769
     11.38948     13.83830      7.60363        -0.000994     -0.001193     -0.003744
      8.46451      6.02973      7.65001        -0.000808      0.004940     -0.002768
     12.23800     10.13780      8.52050        -0.004286      0.000452      0.001537
     11.44456     12.29034     10.06780        -0.003753     -0.001001     -0.003629
      9.96820     11.46559     12.19992        -0.005289      0.000939     -0.007421
     14.48916      9.96039      7.21705         0.007068      0.000717      0.013111
     12.83782     14.49130      9.97617        -0.005288     -0.000807     -0.002824
     10.08171      5.42268      9.99489        -0.006421      0.000711     -0.002033
     10.04633      7.34729     14.36653         0.009018     -0.001605      0.002012
     10.08283      9.97658     14.42418         0.015466     -0.000151     -0.005164
      9.95995      7.24149      5.58911         0.002090      0.004717     -0.005355
      8.48466     13.56097      7.58537        -0.004348      0.000284     -0.004168
     11.32278      6.30180      7.62759        -0.000928      0.003718     -0.005148
      7.66457      9.97551     11.36456         0.000733     -0.000556      0.001477
      8.62619     12.36240      9.99543        -0.006284     -0.001649     -0.006519
     14.85747      9.68668     12.37882        -0.011000     -0.009607      0.014213
     10.09404     12.69390     14.57828         0.009361     -0.000686     -0.003731
      9.87595     10.02310      5.53702         0.004775      0.000947     -0.005674
     12.44641      8.52326     13.67249         0.008814     -0.006439     -0.004917
     12.28178     11.49060      6.21967         0.003331     -0.003828      0.004726
      7.72849      8.59811     13.74372         0.010693      0.003904      0.007033
      7.72401     11.44412     13.72515         0.005395      0.000194      0.004694
      7.68049      8.46712      6.24087         0.001898      0.003952     -0.003465
     11.45481     13.80834     12.32160         0.000564     -0.001520     -0.005313
     16.21487      9.65778     10.95620         0.023919     -0.000155      0.013598
     17.37830      9.49084     10.83572        -0.021838      0.003448      0.009458
 -----------------------------------------------------------------------------------
    total drift:                               -0.007775      0.001906      0.003319


--------------------------------------------------------------------------------------------------------



  FREE ENERGIE OF THE ION-ELECTRON SYSTEM (eV)
  ---------------------------------------------------
  free  energy   TOTEN  =      -186.90738319 eV

  energy  without entropy=     -186.71877397  energy(sigma->0) =     -186.81307858
 


--------------------------------------------------------------------------------------------------------


    POTLOK:  cpu time      0.3009: real time      0.3027


--------------------------------------------------------------------------------------------------------


 stress matrix after NEB project (eV)
     -0.69230     -0.04953      0.21990
     -0.04953     -0.84107     -0.11302
      0.21990     -0.11302     -0.68449
  FORCES: max atom, RMS     0.028139    0.010800
  FORCE total and by dimension    0.081537    0.023919
  Stress total and by dimension    1.335052    0.841067


--------------------------------------------------------------------------------------------------------


  
 reached required accuracy - stopping structural energy minimisation
     LOOP+:  cpu time    518.8789: real time    522.7823
    4ORBIT:  cpu time      0.0000: real time      0.0000

 total amount of memory used by VASP MPI-rank0   105908. kBytes
=======================================================================

   base      :      30000. kBytes
   nonl-proj :      24407. kBytes
   fftplans  :      13383. kBytes
   grid      :      28852. kBytes
   one-center:         62. kBytes
   wavefun   :       9204. kBytes
 
  
  
 General timing and accounting informations for this job:
 ========================================================
  
                  Total CPU time used (sec):      529.641
                            User time (sec):      475.387
                          System time (sec):       54.254
                         Elapsed time (sec):      537.404
  
                   Maximum memory used (kb):      347372.
                   Average memory used (kb):          N/A
  
                          Minor page faults:        69419
                          Major page faults:            0
                 Voluntary context switches:         2791
