 vasp.6.3.2 27Jun22 (build Dec 21 2022 11:15:52) complex                        
  
 executed on Aspire2aVTSTlibbeefS date 2024.05.29  17:52:59
 running  128 mpi-ranks, with    1 threads/rank
 distrk:  each k-point on  128 cores,    1 groups
 distr:  one band on NCORE=  16 cores,    8 groups


--------------------------------------------------------------------------------------------------------


 INCAR:
   ENCUT = 500.000000
   SIGMA = 0.100000
   EDIFF = 1.00e-05
   EDIFFG = -3.00e-02
   ALGO = Fast
   GGA = RPBE
   PREC = Accurate
   IBRION = 2
   ICHARG = 2
   ISIF = 2
   ISMEAR = 0
   ISPIN = 1
   ISTART = 0
   NELM = 90
   NELMIN = 5
   NPAR = 8
   NSIM = 8
   NSW = 500
   LCHARG = .FALSE.
   LPLANE = .FALSE.
   LWAVE = .FALSE.
   LREAL = .FALSE.

 POTCAR:    PAW_PBE Au 04Oct2007                  
 POTCAR:    PAW_PBE Cu 22Jun2005                  
 POTCAR:    PAW_PBE Ag 02Apr2005                  
 POTCAR:    PAW_PBE Pt 04Feb2005                  
 POTCAR:    PAW_PBE Pd 04Jan2005                  
 POTCAR:    PAW_PBE C 08Apr2002                   
 POTCAR:    PAW_PBE O 08Apr2002                   
 POTCAR:    PAW_PBE Au 04Oct2007                  
   VRHFIN =Au: s1d10                                                                                
   LEXCH  = PE                                                                                      
   EATOM  =   926.0867 eV,   68.0654 Ry                                                             
                                                                                                    
   TITEL  = PAW_PBE Au 04Oct2007                                                                    
   LULTRA =        F    use ultrasoft PP ?                                                          
   IUNSCR =        1    unscreen: 0-lin 1-nonlin 2-no                                               
   RPACOR =    2.330    partial core radius                                                         
   POMASS =  196.966; ZVAL   =   11.000    mass and valenz                                          
   RCORE  =    2.500    outmost cutoff radius                                                       
   RWIGS  =    2.840; RWIGS  =    1.503    wigner-seitz radius (au A)                               
   ENMAX  =  229.943; ENMIN  =  172.457 eV                                                          
   ICORE  =        3    local potential                                                             
   LCOR   =        T    correct aug charges                                                         
   LPAW   =        T    paw PP                                                                      
   EAUG   =  356.670                                                                                
   DEXC   =    0.000                                                                                
   RMAX   =    2.562    core radius for proj-oper                                                   
   RAUG   =    1.300    factor for augmentation sphere                                              
   RDEP   =    2.598    radius for radial grids                                                     
   RDEPT  =    2.193    core radius for aug-charge                                                  
                                                                                                    
   Atomic configuration                                                                             
   16 entries                                                                                       
     n  l   j            E        occ.                                                              
     1  0  0.50    -80748.5001   2.0000                                                             
     2  0  0.50    -14244.7466   2.0000                                                             
     2  1  1.50    -12310.9591   6.0000                                                             
     3  0  0.50     -3362.1768   2.0000                                                             
     3  1  1.50     -2801.5463   6.0000                                                             
     3  2  2.50     -2203.8206  10.0000                                                             
     4  0  0.50      -729.8168   2.0000                                                             
     4  1  1.50      -546.0527   6.0000                                                             
     4  2  2.50      -325.7302  10.0000                                                             
     4  3  3.50       -81.1472  14.0000                                                             
     5  0  0.50      -108.3201   2.0000                                                             
     5  1  1.50       -59.7479   6.0000                                                             
     5  2  2.50        -6.8783  10.0000                                                             
     6  0  0.50        -5.7602   1.0000                                                             
     6  1  1.50        -6.8029   0.0000                                                             
     5  3  2.50        -1.3606   0.0000                                                             
   Description                                                                                      
     l       E           TYP  RCUT    TYP  RCUT                                                     
     2     -6.8782861     23  2.500                                                                 
     2     -8.2388687     23  2.500                                                                 
     0     -5.7601759     23  2.500                                                                 
     0     -0.8493231     23  2.500                                                                 
     1     -2.7211652     23  2.500                                                                 
     1     27.2116520     23  2.500                                                                 
     3     -1.3605826     23  2.500                                                                 
  local pseudopotential read in
  partial core-charges read in
  partial kinetic energy density read in
  atomic valenz-charges read in
  non local Contribution for L=           2  read in
    real space projection operators read in
  non local Contribution for L=           2  read in
    real space projection operators read in
  non local Contribution for L=           0  read in
    real space projection operators read in
  non local Contribution for L=           0  read in
    real space projection operators read in
  non local Contribution for L=           1  read in
    real space projection operators read in
  non local Contribution for L=           1  read in
    real space projection operators read in
    PAW grid and wavefunctions read in
 
   number of l-projection  operators is LMAX  =           6
   number of lm-projection operators is LMMAX =          18
 
 POTCAR:    PAW_PBE Cu 22Jun2005                  
   VRHFIN =Cu: d10 p1                                                                               
   LEXCH  = PE                                                                                      
   EATOM  =  1390.9808 eV,  102.2342 Ry                                                             
                                                                                                    
   TITEL  = PAW_PBE Cu 22Jun2005                                                                    
   LULTRA =        F    use ultrasoft PP ?                                                          
   IUNSCR =        1    unscreen: 0-lin 1-nonlin 2-no                                               
   RPACOR =    2.000    partial core radius                                                         
   POMASS =   63.546; ZVAL   =   11.000    mass and valenz                                          
   RCORE  =    2.300    outmost cutoff radius                                                       
   RWIGS  =    2.200; RWIGS  =    1.164    wigner-seitz radius (au A)                               
   ENMAX  =  295.446; ENMIN  =  221.585 eV                                                          
   ICORE  =        3    local potential                                                             
   LCOR   =        T    correct aug charges                                                         
   LPAW   =        T    paw PP                                                                      
   EAUG   =  586.980                                                                                
   DEXC   =    0.000                                                                                
   RMAX   =    2.344    core radius for proj-oper                                                   
   RAUG   =    1.300    factor for augmentation sphere                                              
   RDEP   =    2.302    radius for radial grids                                                     
   RDEPT  =    1.771    core radius for aug-charge                                                  
                                                                                                    
   Atomic configuration                                                                             
    9 entries                                                                                       
     n  l   j            E        occ.                                                              
     1  0  0.50     -8850.2468   2.0000                                                             
     2  0  0.50     -1062.3498   2.0000                                                             
     2  1  1.50      -916.8226   6.0000                                                             
     3  0  0.50      -114.6929   2.0000                                                             
     3  1  1.50       -72.1325   6.0000                                                             
     3  2  2.50        -5.0394  10.0000                                                             
     4  0  0.50        -4.6097   1.0000                                                             
     4  1  0.50        -4.0817   0.0000                                                             
     4  3  2.50        -1.3606   0.0000                                                             
   Description                                                                                      
     l       E           TYP  RCUT    TYP  RCUT                                                     
     2     -5.0393973     23  2.200                                                                 
     2     10.8846608     23  2.200                                                                 
     0     -4.6097109     23  2.200                                                                 
     0      8.2520465     23  2.200                                                                 
     1     -2.7211652     23  2.200                                                                 
     1     21.7055443     23  2.200                                                                 
     3      2.7211652     23  2.300                                                                 
  local pseudopotential read in
  partial core-charges read in
  partial kinetic energy density read in
  atomic valenz-charges read in
  non local Contribution for L=           2  read in
    real space projection operators read in
  non local Contribution for L=           2  read in
    real space projection operators read in
  non local Contribution for L=           0  read in
    real space projection operators read in
  non local Contribution for L=           0  read in
    real space projection operators read in
  non local Contribution for L=           1  read in
    real space projection operators read in
  non local Contribution for L=           1  read in
    real space projection operators read in
    PAW grid and wavefunctions read in
 
   number of l-projection  operators is LMAX  =           6
   number of lm-projection operators is LMMAX =          18
 
 POTCAR:    PAW_PBE Ag 02Apr2005                  
   VRHFIN =Ag : s1 d10                                                                              
   LEXCH  = PE                                                                                      
   EATOM  =  1037.2675 eV,   76.2370 Ry                                                             
                                                                                                    
   TITEL  = PAW_PBE Ag 02Apr2005                                                                    
   LULTRA =        F    use ultrasoft PP ?                                                          
   IUNSCR =        1    unscreen: 0-lin 1-nonlin 2-no                                               
   RPACOR =    2.000    partial core radius                                                         
   POMASS =  107.868; ZVAL   =   11.000    mass and valenz                                          
   RCORE  =    2.500    outmost cutoff radius                                                       
   RWIGS  =    2.840; RWIGS  =    1.503    wigner-seitz radius (au A)                               
   ENMAX  =  249.844; ENMIN  =  187.383 eV                                                          
   ICORE  =        3    local potential                                                             
   LCOR   =        T    correct aug charges                                                         
   LPAW   =        T    paw PP                                                                      
   EAUG   =  412.496                                                                                
   DEXC   =    0.000                                                                                
   RMAX   =    2.560    core radius for proj-oper                                                   
   RAUG   =    1.300    factor for augmentation sphere                                              
   RDEP   =    2.576    radius for radial grids                                                     
   RDEPT  =    2.072    core radius for aug-charge                                                  
                                                                                                    
   Atomic configuration                                                                             
   12 entries                                                                                       
     n  l   j            E        occ.                                                              
     1  0  0.50    -25324.9161   2.0000                                                             
     2  0  0.50     -3728.5341   2.0000                                                             
     2  1  1.50     -3344.0404   6.0000                                                             
     3  0  0.50      -683.5581   2.0000                                                             
     3  1  1.50      -557.3225   6.0000                                                             
     3  2  2.50      -358.3853  10.0000                                                             
     4  0  0.50       -95.0341   2.0000                                                             
     4  1  1.50       -58.5511   6.0000                                                             
     4  2  2.50        -7.4440  10.0000                                                             
     5  0  0.50        -4.4045   1.0000                                                             
     5  1  0.50        -1.3606   0.0000                                                             
     4  3  2.50        -1.3606   0.0000                                                             
   Description                                                                                      
     l       E           TYP  RCUT    TYP  RCUT                                                     
     2     -7.4439781     23  2.400                                                                 
     2     -8.8045607     23  2.400                                                                 
     0     -4.4044681     23  2.400                                                                 
     0      1.9520038     23  2.400                                                                 
     1     -1.3605826     23  2.500                                                                 
     1     27.2116520     23  2.500                                                                 
     3     -4.0817478     23  2.400                                                                 
  local pseudopotential read in
  partial core-charges read in
  partial kinetic energy density read in
  atomic valenz-charges read in
  non local Contribution for L=           2  read in
    real space projection operators read in
  non local Contribution for L=           2  read in
    real space projection operators read in
  non local Contribution for L=           0  read in
    real space projection operators read in
  non local Contribution for L=           0  read in
    real space projection operators read in
  non local Contribution for L=           1  read in
    real space projection operators read in
  non local Contribution for L=           1  read in
    real space projection operators read in
    PAW grid and wavefunctions read in
 
   number of l-projection  operators is LMAX  =           6
   number of lm-projection operators is LMMAX =          18
 
 POTCAR:    PAW_PBE Pt 04Feb2005                  
   VRHFIN =Pt: s1d9                                                                                 
   LEXCH  = PE                                                                                      
   EATOM  =   729.1176 eV,   53.5886 Ry                                                             
                                                                                                    
   TITEL  = PAW_PBE Pt 04Feb2005                                                                    
   LULTRA =        F    use ultrasoft PP ?                                                          
   IUNSCR =        1    unscreen: 0-lin 1-nonlin 2-no                                               
   RPACOR =    2.330    partial core radius                                                         
   POMASS =  195.080; ZVAL   =   10.000    mass and valenz                                          
   RCORE  =    2.600    outmost cutoff radius                                                       
   RWIGS  =    2.750; RWIGS  =    1.455    wigner-seitz radius (au A)                               
   ENMAX  =  230.283; ENMIN  =  172.712 eV                                                          
   ICORE  =        3    local potential                                                             
   LCOR   =        T    correct aug charges                                                         
   LPAW   =        T    paw PP                                                                      
   EAUG   =  358.966                                                                                
   DEXC   =    0.000                                                                                
   RMAX   =    2.658    core radius for proj-oper                                                   
   RAUG   =    1.300    factor for augmentation sphere                                              
   RDEP   =    2.761    radius for radial grids                                                     
   RDEPT  =    2.203    core radius for aug-charge                                                  
                                                                                                    
   Atomic configuration                                                                             
   16 entries                                                                                       
     n  l   j            E        occ.                                                              
     1  0  0.50    -78401.1885   2.0000                                                             
     2  0  0.50    -13770.7750   2.0000                                                             
     2  1  1.50    -11931.0468   6.0000                                                             
     3  0  0.50     -3234.7234   2.0000                                                             
     3  1  1.50     -2699.2216   6.0000                                                             
     3  2  2.50     -2119.5714  10.0000                                                             
     4  0  0.50      -695.1528   2.0000                                                             
     4  1  1.50      -519.6034   6.0000                                                             
     4  2  2.50      -306.6786  10.0000                                                             
     4  3  3.50       -70.1041  14.0000                                                             
     5  0  0.50      -101.7747   2.0000                                                             
     5  1  1.50       -55.9873   6.0000                                                             
     5  2  2.50        -6.1423   9.0000                                                             
     6  0  0.50        -5.6573   1.0000                                                             
     6  1  1.50        -6.8029   0.0000                                                             
     5  3  2.50        -1.3606   0.0000                                                             
   Description                                                                                      
     l       E           TYP  RCUT    TYP  RCUT                                                     
     2     -6.1423404     23  2.500                                                                 
     2     -7.5029230     23  2.500                                                                 
     0     -5.6573207     23  2.500                                                                 
     0      0.7416693     23  2.500                                                                 
     1     -2.7211652     23  2.600                                                                 
     1     20.4087390     23  2.600                                                                 
     3     -1.3605826     23  2.500                                                                 
  local pseudopotential read in
  partial core-charges read in
  partial kinetic energy density read in
  atomic valenz-charges read in
  non local Contribution for L=           2  read in
    real space projection operators read in
  non local Contribution for L=           2  read in
    real space projection operators read in
  non local Contribution for L=           0  read in
    real space projection operators read in
  non local Contribution for L=           0  read in
    real space projection operators read in
  non local Contribution for L=           1  read in
    real space projection operators read in
  non local Contribution for L=           1  read in
    real space projection operators read in
    PAW grid and wavefunctions read in
 
   number of l-projection  operators is LMAX  =           6
   number of lm-projection operators is LMMAX =          18
 
 POTCAR:    PAW_PBE Pd 04Jan2005                  
   VRHFIN =Pd : s1 d9                                                                               
   LEXCH  = PE                                                                                      
   EATOM  =   809.7530 eV,   59.5152 Ry                                                             
                                                                                                    
   TITEL  = PAW_PBE Pd 04Jan2005                                                                    
   LULTRA =        F    use ultrasoft PP ?                                                          
   IUNSCR =        1    unscreen: 0-lin 1-nonlin 2-no                                               
   RPACOR =    2.000    partial core radius                                                         
   POMASS =  106.420; ZVAL   =   10.000    mass and valenz                                          
   RCORE  =    2.600    outmost cutoff radius                                                       
   RWIGS  =    2.710; RWIGS  =    1.434    wigner-seitz radius (au A)                               
   ENMAX  =  250.925; ENMIN  =  188.194 eV                                                          
   ICORE  =        3    local potential                                                             
   LCOR   =        T    correct aug charges                                                         
   LPAW   =        T    paw PP                                                                      
   EAUG   =  416.230                                                                                
   DEXC   =    0.000                                                                                
   RMAX   =    2.653    core radius for proj-oper                                                   
   RAUG   =    1.300    factor for augmentation sphere                                              
   RDEP   =    2.734    radius for radial grids                                                     
   RDEPT  =    2.103    core radius for aug-charge                                                  
                                                                                                    
   Atomic configuration                                                                             
   12 entries                                                                                       
     n  l   j            E        occ.                                                              
     1  0  0.50    -24164.6631   2.0000                                                             
     2  0  0.50     -3530.9218   2.0000                                                             
     2  1  1.50     -3165.6822   6.0000                                                             
     3  0  0.50      -639.4577   2.0000                                                             
     3  1  1.50      -519.4532   6.0000                                                             
     3  2  2.50      -328.9757  10.0000                                                             
     4  0  0.50       -88.7014   2.0000                                                             
     4  1  1.50       -54.4540   6.0000                                                             
     4  2  2.50        -6.6878   9.0000                                                             
     5  0  0.50        -4.3543   1.0000                                                             
     5  1  0.50        -1.3606   0.0000                                                             
     4  3  2.50        -1.3606   0.0000                                                             
   Description                                                                                      
     l       E           TYP  RCUT    TYP  RCUT                                                     
     2     -6.6878251     23  2.400                                                                 
     2     -8.0484077     23  2.400                                                                 
     0     -4.3542939     23  2.400                                                                 
     0      4.3406793     23  2.400                                                                 
     1     -4.0817478     23  2.600                                                                 
     1     15.8380318     23  2.600                                                                 
     3     -4.0817478     23  2.400                                                                 
  local pseudopotential read in
  partial core-charges read in
  partial kinetic energy density read in
  atomic valenz-charges read in
  non local Contribution for L=           2  read in
    real space projection operators read in
  non local Contribution for L=           2  read in
    real space projection operators read in
  non local Contribution for L=           0  read in
    real space projection operators read in
  non local Contribution for L=           0  read in
    real space projection operators read in
  non local Contribution for L=           1  read in
    real space projection operators read in
  non local Contribution for L=           1  read in
    real space projection operators read in
    PAW grid and wavefunctions read in
 
   number of l-projection  operators is LMAX  =           6
   number of lm-projection operators is LMMAX =          18
 
 POTCAR:    PAW_PBE C 08Apr2002                   
   VRHFIN =C: s2p2                                                                                  
   LEXCH  = PE                                                                                      
   EATOM  =   147.1560 eV,   10.8157 Ry                                                             
                                                                                                    
   TITEL  = PAW_PBE C 08Apr2002                                                                     
   LULTRA =        F    use ultrasoft PP ?                                                          
   IUNSCR =        1    unscreen: 0-lin 1-nonlin 2-no                                               
   RPACOR =    1.200    partial core radius                                                         
   POMASS =   12.011; ZVAL   =    4.000    mass and valenz                                          
   RCORE  =    1.500    outmost cutoff radius                                                       
   RWIGS  =    1.630; RWIGS  =    0.863    wigner-seitz radius (au A)                               
   ENMAX  =  400.000; ENMIN  =  300.000 eV                                                          
   ICORE  =        2    local potential                                                             
   LCOR   =        T    correct aug charges                                                         
   LPAW   =        T    paw PP                                                                      
   EAUG   =  644.873                                                                                
   DEXC   =    0.000                                                                                
   RMAX   =    1.529    core radius for proj-oper                                                   
   RAUG   =    1.300    factor for augmentation sphere                                              
   RDEP   =    1.501    radius for radial grids                                                     
   RDEPT  =    1.300    core radius for aug-charge                                                  
                                                                                                    
   Atomic configuration                                                                             
    4 entries                                                                                       
     n  l   j            E        occ.                                                              
     1  0  0.50      -273.3789   2.0000                                                             
     2  0  0.50       -13.7508   2.0000                                                             
     2  1  0.50        -5.2854   2.0000                                                             
     3  2  1.50        -5.4423   0.0000                                                             
   Description                                                                                      
     l       E           TYP  RCUT    TYP  RCUT                                                     
     0    -13.7508458     23  1.200                                                                 
     0     -8.2022199     23  1.200                                                                 
     1     -5.2854383     23  1.500                                                                 
     1     34.0145650     23  1.500                                                                 
     2     -5.4423304      7  1.500                                                                 
  local pseudopotential read in
  partial core-charges read in
  partial kinetic energy density read in
  atomic valenz-charges read in
  non local Contribution for L=           0  read in
    real space projection operators read in
  non local Contribution for L=           0  read in
    real space projection operators read in
  non local Contribution for L=           1  read in
    real space projection operators read in
  non local Contribution for L=           1  read in
    real space projection operators read in
    PAW grid and wavefunctions read in
 
   number of l-projection  operators is LMAX  =           4
   number of lm-projection operators is LMMAX =           8
 
 POTCAR:    PAW_PBE O 08Apr2002                   
   VRHFIN =O: s2p4                                                                                  
   LEXCH  = PE                                                                                      
   EATOM  =   432.3788 eV,   31.7789 Ry                                                             
                                                                                                    
   TITEL  = PAW_PBE O 08Apr2002                                                                     
   LULTRA =        F    use ultrasoft PP ?                                                          
   IUNSCR =        1    unscreen: 0-lin 1-nonlin 2-no                                               
   RPACOR =    1.200    partial core radius                                                         
   POMASS =   16.000; ZVAL   =    6.000    mass and valenz                                          
   RCORE  =    1.520    outmost cutoff radius                                                       
   RWIGS  =    1.550; RWIGS  =    0.820    wigner-seitz radius (au A)                               
   ENMAX  =  400.000; ENMIN  =  300.000 eV                                                          
   ICORE  =        2    local potential                                                             
   LCOR   =        T    correct aug charges                                                         
   LPAW   =        T    paw PP                                                                      
   EAUG   =  605.392                                                                                
   DEXC   =    0.000                                                                                
   RMAX   =    1.553    core radius for proj-oper                                                   
   RAUG   =    1.300    factor for augmentation sphere                                              
   RDEP   =    1.550    radius for radial grids                                                     
   RDEPT  =    1.329    core radius for aug-charge                                                  
                                                                                                    
   Atomic configuration                                                                             
    4 entries                                                                                       
     n  l   j            E        occ.                                                              
     1  0  0.50      -514.6923   2.0000                                                             
     2  0  0.50       -23.9615   2.0000                                                             
     2  1  0.50        -9.0305   4.0000                                                             
     3  2  1.50        -9.5241   0.0000                                                             
   Description                                                                                      
     l       E           TYP  RCUT    TYP  RCUT                                                     
     0    -23.9615318     23  1.200                                                                 
     0     -9.5240782     23  1.200                                                                 
     1     -9.0304911     23  1.520                                                                 
     1      8.1634956     23  1.520                                                                 
     2     -9.5240782      7  1.500                                                                 
  local pseudopotential read in
  partial core-charges read in
  partial kinetic energy density read in
  kinetic energy density of atom read in
  atomic valenz-charges read in
  non local Contribution for L=           0  read in
    real space projection operators read in
  non local Contribution for L=           0  read in
    real space projection operators read in
  non local Contribution for L=           1  read in
    real space projection operators read in
  non local Contribution for L=           1  read in
    real space projection operators read in
    PAW grid and wavefunctions read in
 
   number of l-projection  operators is LMAX  =           4
   number of lm-projection operators is LMMAX =           8
 
 -----------------------------------------------------------------------------
|                                                                             |
|               ----> ADVICE to this user running VASP <----                  |
|                                                                             |
|     You have a (more or less) 'large supercell' and for larger cells it     |
|     might be more efficient to use real-space projection operators.         |
|     Therefore, try LREAL= Auto in the INCAR file.                           |
|     Mind: For very accurate calculation, you might also keep the            |
|     reciprocal projection scheme (i.e. LREAL=.FALSE.).                      |
|                                                                             |
 -----------------------------------------------------------------------------

 -----------------------------------------------------------------------------
|                                                                             |
|               ----> ADVICE to this user running VASP <----                  |
|                                                                             |
|     You enforced a specific xc type in the INCAR file but a different       |
|     type was found in the POTCAR file.                                      |
|     I HOPE YOU KNOW WHAT YOU ARE DOING!                                     |
|                                                                             |
 -----------------------------------------------------------------------------

  PAW_PBE Au 04Oct2007                  :
 energy of atom  1       EATOM= -926.0867
 kinetic energy error for atom=    0.0042 (will be added to EATOM!!)
  PAW_PBE Cu 22Jun2005                  :
 energy of atom  2       EATOM=-1390.9808
 kinetic energy error for atom=    0.0043 (will be added to EATOM!!)
  PAW_PBE Ag 02Apr2005                  :
 energy of atom  3       EATOM=-1037.2675
 kinetic energy error for atom=    0.0052 (will be added to EATOM!!)
  PAW_PBE Pt 04Feb2005                  :
 energy of atom  4       EATOM= -729.1176
 kinetic energy error for atom=    0.0039 (will be added to EATOM!!)
  PAW_PBE Pd 04Jan2005                  :
 energy of atom  5       EATOM= -809.7530
 kinetic energy error for atom=    0.0049 (will be added to EATOM!!)
  PAW_PBE C 08Apr2002                   :
 energy of atom  6       EATOM= -147.1560
 kinetic energy error for atom=    0.0076 (will be added to EATOM!!)
  PAW_PBE O 08Apr2002                   :
 energy of atom  7       EATOM= -432.3788
 kinetic energy error for atom=    0.0224 (will be added to EATOM!!)
 
 
 POSCAR: Au Cu Ag Pt Pd  C  O
  positions in cartesian coordinates
  No initial velocities read in
 exchange correlation table for  LEXCH =        9
   RHO(1)=    0.500       N(1)  =     2000
   RHO(2)=  100.500       N(2)  =     4000

 VTST: version 4.2, (08/11/21)

 CHAIN: initializing optimizer
 
 OPT: Using VASP Conjugate-Gradient optimizer
 CHAIN: Read ICHAIN            0
 
 POSCAR: Au Cu Ag Pt Pd  C  O
  positions in cartesian coordinates
  No initial velocities read in
 


--------------------------------------------------------------------------------------------------------


 ion  position               nearest neighbor table
   1  0.614  0.503  0.571-  15 2.63  47 2.72  21 2.73  50 2.73  35 2.78   3 2.80  12 2.81   7 2.82
                            36 2.85  28 2.87  34 2.90  23 2.92
   2  0.418  0.384  0.498-  17 2.54  22 2.72  23 2.74  45 2.81  30 2.83  31 2.83  39 2.84  33 2.86
                            24 2.87  12 2.91  13 2.93   3 3.01
   3  0.568  0.392  0.500-  21 2.66  20 2.67  23 2.70  39 2.74  12 2.74  13 2.74  44 2.75   1 2.80
                             6 2.82  34 2.82  11 2.87   2 3.01
   4  0.281  0.504  0.322-  19 2.64  54 2.73  24 2.76  29 3.13  30 3.21
   5  0.359  0.735  0.492-  46 2.70  26 2.84  29 2.87  43 2.88  10 3.03   9 3.04
   6  0.646  0.275  0.493-  20 2.72  21 2.76  44 2.78   3 2.82  39 2.87  11 2.93
   7  0.625  0.569  0.695-  48 2.81   1 2.82  41 2.84  50 2.89  28 2.90  47 2.98  55 3.06  36 3.12

   8  0.698  0.616  0.435-  37 2.76  38 2.77  34 2.86  15 2.91  28 2.92  35 2.93  51 2.98  32 3.11

   9  0.309  0.619  0.576-  45 2.79  46 2.81  16 2.87  53 2.89  25 2.91  10 2.96   5 3.04  29 3.16

  10  0.427  0.695  0.621-  36 2.83  46 2.89  55 2.89  53 2.89  48 2.93   9 2.96  26 3.01   5 3.03

  11  0.575  0.309  0.617-  22 2.73  40 2.75  21 2.81  39 2.81  50 2.82   3 2.87   6 2.93  12 2.95

  12  0.497  0.434  0.609-  22 2.56  40 2.59  41 2.61  23 2.66  52 2.72   3 2.74  36 2.75   1 2.81
                            45 2.82  50 2.88   2 2.91  11 2.95
  13  0.501  0.431  0.387-  42 2.57  23 2.58  49 2.61  54 2.64  44 2.68  34 2.70   3 2.74   2 2.93
                            27 2.95  33 3.02  24 3.13
  14  0.502  0.574  0.388-  18 2.42  19 2.57  23 2.59  43 2.60  34 2.62  49 2.66  35 2.75  32 2.78
                            51 2.79  46 2.82  24 3.18
  15  0.723  0.488  0.499-  37 2.57  21 2.61   1 2.63  20 2.67  47 2.68  34 2.77   8 2.91  28 3.12

  16  0.284  0.501  0.655-  45 2.52  53 2.61  52 2.62  25 2.77   9 2.87  31 2.92
  17  0.377  0.266  0.516-   2 2.54  39 2.54  22 2.57  31 2.93  33 2.95
  18  0.501  0.632  0.282-  14 2.42  19 2.56  43 2.60  49 2.62  51 2.71  32 2.73
  19  0.396  0.569  0.317-  18 2.56  14 2.57  43 2.63   4 2.64  49 2.66  24 2.71  54 2.89  29 2.95

  20  0.678  0.387  0.424-  37 2.60   3 2.67  15 2.67   6 2.72  44 2.73  27 2.74  34 2.76
  21  0.682  0.385  0.568-  15 2.61  47 2.64   3 2.66   1 2.73  50 2.73   6 2.76  11 2.81
  22  0.439  0.320  0.615-  12 2.56  17 2.57  40 2.62   2 2.72  11 2.73  39 2.79  52 2.84  31 2.85

  23  0.489  0.501  0.495-  13 2.58  14 2.59  46 2.66  12 2.66   3 2.70  45 2.70  36 2.70  34 2.72
                             2 2.74  35 2.76  24 2.76   1 2.92
  24  0.367  0.500  0.430-  19 2.71   4 2.76  23 2.76  29 2.79  45 2.82  54 2.83  30 2.84   2 2.87
                            25 2.96  46 2.98  13 3.13  14 3.18
  25  0.250  0.498  0.521-  56 2.10  45 2.73  16 2.77   9 2.91  24 2.96  31 3.07  30 3.42  29 3.42

  26  0.500  0.743  0.499-   5 2.84  38 2.85  35 2.91  46 2.91  32 2.95  55 2.96  10 3.01  43 3.07

  27  0.624  0.427  0.304-  20 2.74  42 2.78  37 2.80  49 2.89  34 2.91  13 2.95  51 2.96  44 2.97

  28  0.697  0.619  0.580-  38 2.82   1 2.87   7 2.90   8 2.92  47 2.92  55 2.96  35 3.03  15 3.12

  29  0.304  0.624  0.419-  24 2.79  43 2.84   5 2.87  46 2.92  19 2.95   4 3.13   9 3.16  25 3.42

  30  0.304  0.375  0.415-   2 2.83  24 2.84  54 2.89  33 2.94   4 3.21  25 3.42  31 3.47
  31  0.310  0.374  0.588-  52 2.82   2 2.83  45 2.85  22 2.85  16 2.92  17 2.93  25 3.07  30 3.47

  32  0.573  0.693  0.381-  18 2.73  14 2.78  38 2.85  51 2.87  35 2.89  43 2.90  26 2.95   8 3.11

  33  0.426  0.301  0.382-  42 2.84   2 2.86  44 2.86  39 2.90  54 2.93  30 2.94  17 2.95  13 3.02

  34  0.607  0.506  0.426-  14 2.62  37 2.62  51 2.65  13 2.70  23 2.72  20 2.76  15 2.77  35 2.77
                             3 2.82   8 2.86   1 2.90  27 2.91
  35  0.568  0.614  0.503-  38 2.62  55 2.71  36 2.72  14 2.75  23 2.76  34 2.77   1 2.78  46 2.83
                            32 2.89  26 2.91   8 2.93  28 3.03
  36  0.495  0.572  0.610-  41 2.68  53 2.68  23 2.70  48 2.71  35 2.72  12 2.75  46 2.76  55 2.79
                            10 2.83   1 2.85  45 2.89   7 3.12
  37  0.726  0.497  0.371-  15 2.57  20 2.60  34 2.62   8 2.76  27 2.80  51 2.87
  38  0.641  0.723  0.503-  35 2.62  55 2.76   8 2.77  28 2.82  32 2.85  26 2.85
  39  0.503  0.271  0.502-  17 2.54   3 2.74  22 2.79  44 2.81  11 2.81   2 2.84   6 2.87  33 2.90

  40  0.504  0.366  0.719-  12 2.59  22 2.62  41 2.65  52 2.69  50 2.70  11 2.75
  41  0.504  0.499  0.722-  12 2.61  40 2.65  36 2.68  48 2.72  52 2.77   7 2.84  50 2.86  53 2.86

  42  0.505  0.360  0.280-  13 2.57  44 2.63  54 2.67  27 2.78  49 2.83  33 2.84
  43  0.429  0.681  0.379-  14 2.60  18 2.60  19 2.63  46 2.71  29 2.84   5 2.88  32 2.90  26 3.07

  44  0.568  0.316  0.385-  42 2.63  13 2.68  20 2.73   3 2.75   6 2.78  39 2.81  33 2.86  27 2.97

  45  0.377  0.498  0.570-  16 2.52  23 2.70  25 2.73  52 2.77   9 2.79   2 2.81  24 2.82  12 2.82
                            53 2.83  31 2.85  36 2.89  46 2.96
  46  0.426  0.618  0.499-  23 2.66   5 2.70  43 2.71  36 2.76   9 2.81  14 2.82  35 2.83  10 2.89
                            26 2.91  29 2.92  45 2.96  24 2.98
  47  0.734  0.488  0.633-  21 2.64  15 2.68   1 2.72  50 2.78  28 2.92   7 2.98
  48  0.506  0.635  0.729-  36 2.71  41 2.72  53 2.79   7 2.81  55 2.82  10 2.93
  49  0.503  0.502  0.277-  13 2.61  18 2.62  19 2.66  14 2.66  54 2.78  42 2.83  51 2.86  27 2.89

  50  0.620  0.425  0.683-  40 2.70  21 2.73   1 2.73  47 2.78  11 2.82  41 2.86  12 2.88   7 2.89

  51  0.620  0.575  0.314-  34 2.65  18 2.71  14 2.79  49 2.86  37 2.87  32 2.87  27 2.96   8 2.98

  52  0.389  0.430  0.690-  16 2.62  40 2.69  12 2.72  45 2.77  41 2.77  31 2.82  22 2.84  53 2.88

  53  0.387  0.574  0.689-  16 2.61  36 2.68  48 2.79  45 2.83  41 2.86  52 2.88   9 2.89  10 2.89

  54  0.392  0.425  0.313-  13 2.64  42 2.67   4 2.73  49 2.78  24 2.83  30 2.89  19 2.89  33 2.93

  55  0.572  0.688  0.616-  35 2.71  38 2.76  36 2.79  48 2.82  10 2.89  26 2.96  28 2.96   7 3.06

  56  0.147  0.495  0.504-  57 1.15  25 2.10
  57  0.089  0.495  0.507-  56 1.15
 
  LATTYP: Found a simple cubic cell.
 ALAT       =    20.0000000000
  
  Lattice vectors:
  
 A1 = (  20.0000000000,   0.0000000000,   0.0000000000)
 A2 = (   0.0000000000,  20.0000000000,   0.0000000000)
 A3 = (   0.0000000000,   0.0000000000,  20.0000000000)


Analysis of symmetry for initial positions (statically):
=====================================================================
 Subroutine PRICEL returns:
 Original cell was already a primitive cell.
 

 Routine SETGRP: Setting up the symmetry group for a 
 simple cubic supercell.


 Subroutine GETGRP returns: Found  1 space group operations
 (whereof  1 operations were pure point group operations)
 out of a pool of 48 trial point group operations.


The static configuration has the point symmetry C_1 .


Analysis of symmetry for dynamics (positions and initial velocities):
=====================================================================
 Subroutine PRICEL returns:
 Original cell was already a primitive cell.
 

 Routine SETGRP: Setting up the symmetry group for a 
 simple cubic supercell.


 Subroutine GETGRP returns: Found  1 space group operations
 (whereof  1 operations were pure point group operations)
 out of a pool of 48 trial point group operations.


The dynamic configuration has the point symmetry C_1 .


 Subroutine INISYM returns: Found  1 space group operations
 (whereof  1 operations are pure point group operations),
 and found     1 'primitive' translations


----------------------------------------------------------------------------------------

                                     Primitive cell                                     

  volume of cell :    8000.0000

  direct lattice vectors                    reciprocal lattice vectors
    20.000000000  0.000000000  0.000000000     0.050000000  0.000000000  0.000000000
     0.000000000 20.000000000  0.000000000     0.000000000  0.050000000  0.000000000
     0.000000000  0.000000000 20.000000000     0.000000000  0.000000000  0.050000000

  length of vectors
    20.000000000 20.000000000 20.000000000     0.050000000  0.050000000  0.050000000

  position of ions in fractional coordinates (direct lattice)
     0.613741232  0.502845191  0.571166897
     0.417683711  0.384276173  0.497549063
     0.567986414  0.391755303  0.499699106
     0.281395013  0.503796477  0.321926999
     0.358760877  0.734906382  0.492113372
     0.646381381  0.274823076  0.493332325
     0.625026878  0.568557993  0.695219370
     0.697539205  0.615901422  0.434551665
     0.308705775  0.618835893  0.576318370
     0.427146205  0.695329014  0.621444344
     0.574751640  0.308554077  0.616708019
     0.497218531  0.433992558  0.608941890
     0.501475761  0.431396290  0.386713429
     0.502080644  0.573978091  0.388459253
     0.723114783  0.488094164  0.499384462
     0.284262709  0.500934231  0.654750059
     0.377400962  0.265544459  0.516479833
     0.501366234  0.632450336  0.282369513
     0.395686688  0.569316818  0.316748210
     0.677917486  0.387422065  0.424020759
     0.682120127  0.384971183  0.568079093
     0.438978655  0.320048465  0.615265601
     0.489385938  0.501145231  0.494536435
     0.367457171  0.500290889  0.429650059
     0.250396714  0.497967982  0.520571985
     0.500308821  0.743182597  0.499118331
     0.623760343  0.427297540  0.304446876
     0.697336988  0.619015901  0.580422129
     0.304419437  0.624474417  0.418624447
     0.303576343  0.374644955  0.414600233
     0.309507138  0.373590061  0.588118628
     0.573265554  0.692865676  0.381351990
     0.426397537  0.300681645  0.382047251
     0.607023521  0.505568442  0.426202205
     0.567557260  0.614283281  0.502552453
     0.494907169  0.571671875  0.609602334
     0.725536928  0.496545878  0.371303065
     0.641450434  0.722696069  0.502711622
     0.503270165  0.271282322  0.501645463
     0.503783366  0.366393097  0.719189032
     0.504208079  0.498947241  0.721926347
     0.504616372  0.360438779  0.279867416
     0.428664274  0.680618363  0.378823087
     0.568430506  0.315538957  0.385418711
     0.377492863  0.497506900  0.570107130
     0.426249582  0.617955637  0.499189908
     0.733556108  0.487788356  0.633227114
     0.505868769  0.634837900  0.728988079
     0.502835504  0.501700072  0.276980205
     0.620116444  0.424598184  0.683134963
     0.619953125  0.574838075  0.313994502
     0.388575403  0.429902633  0.690240861
     0.386779497  0.573934928  0.689107026
     0.392319606  0.424866881  0.312508768
     0.571561380  0.688028765  0.616372002
     0.146669991  0.494891177  0.503716153
     0.089167176  0.495159895  0.507282528

  ion indices of the primitive-cell ions
   primitive index   ion index
                 1           1
                 2           2
                 3           3
                 4           4
                 5           5
                 6           6
                 7           7
                 8           8
                 9           9
                10          10
                11          11
                12          12
                13          13
                14          14
                15          15
                16          16
                17          17
                18          18
                19          19
                20          20
                21          21
                22          22
                23          23
                24          24
                25          25
                26          26
                27          27
                28          28
                29          29
                30          30
                31          31
                32          32
                33          33
                34          34
                35          35
                36          36
                37          37
                38          38
                39          39
                40          40
                41          41
                42          42
                43          43
                44          44
                45          45
                46          46
                47          47
                48          48
                49          49
                50          50
                51          51
                52          52
                53          53
                54          54
                55          55
                56          56
                57          57

----------------------------------------------------------------------------------------

 
 
 KPOINTS: KPOINTS created by Atomic Simulation Env

Automatic generation of k-mesh.
 Grid dimensions read from file:
 generate k-points for:    1    1    1

 Generating k-lattice:

  Cartesian coordinates                     Fractional coordinates (reciprocal lattice)
     0.050000000  0.000000000  0.000000000     1.000000000  0.000000000  0.000000000
     0.000000000  0.050000000  0.000000000     0.000000000  1.000000000  0.000000000
     0.000000000  0.000000000  0.050000000     0.000000000  0.000000000  1.000000000

  Length of vectors
     0.050000000  0.050000000  0.050000000

  Shift w.r.t. Gamma in fractional coordinates (k-lattice)
     0.000000000  0.000000000  0.000000000

 
 Subroutine IBZKPT returns following result:
 ===========================================
 
 Found      1 irreducible k-points:
 
 Following reciprocal coordinates:
            Coordinates               Weight
  0.000000  0.000000  0.000000      1.000000
 
 Following cartesian coordinates:
            Coordinates               Weight
  0.000000  0.000000  0.000000      1.000000
 


--------------------------------------------------------------------------------------------------------




 Dimension of arrays:
   k-points           NKPTS =      1   k-points in BZ     NKDIM =      1   number of bands    NBANDS=    360
   number of dos      NEDOS =    301   number of ions     NIONS =     57
   non local maximal  LDIM  =      6   non local SUM 2l+1 LMDIM =     18
   total plane-waves  NPLWV = ******
   max r-space proj   IRMAX =      1   max aug-charges    IRDMAX=  25995
   dimension x,y,z NGX =   150 NGY =  150 NGZ =  150
   dimension x,y,z NGXF=   300 NGYF=  300 NGZF=  300
   support grid    NGXF=   300 NGYF=  300 NGZF=  300
   ions per type =              11  11  11  11  11   1   1
   NGX,Y,Z   is equivalent  to a cutoff of  12.47, 12.47, 12.47 a.u.
   NGXF,Y,Z  is equivalent  to a cutoff of  24.94, 24.94, 24.94 a.u.

 SYSTEM =  unknown system                          
 POSCAR =  Au Cu Ag Pt Pd  C  O                    

 Startparameter for this run:
   NWRITE =      2    write-flag & timer
   PREC   = accura    normal or accurate (medium, high low for compatibility)
   ISTART =      0    job   : 0-new  1-cont  2-samecut
   ICHARG =      2    charge: 1-file 2-atom 10-const
   ISPIN  =      1    spin polarized calculation?
   LNONCOLLINEAR =      F non collinear calculations
   LSORBIT =      F    spin-orbit coupling
   INIWAV =      1    electr: 0-lowe 1-rand  2-diag
   LASPH  =      F    aspherical Exc in radial PAW
 Electronic Relaxation 1
   ENCUT  =  500.0 eV  36.75 Ry    6.06 a.u.  36.46 36.46 36.46*2*pi/ulx,y,z
   ENINI  =  500.0     initial cutoff
   ENAUG  =  644.9 eV  augmentation charge cutoff
   NELM   =     90;   NELMIN=  5; NELMDL= -5     # of ELM steps 
   EDIFF  = 0.1E-04   stopping-criterion for ELM
   LREAL  =      F    real-space projection
   NLSPLINE    = F    spline interpolate recip. space projectors
   LCOMPAT=      F    compatible to vasp.4.4
   GGA_COMPAT  = T    GGA compatible to vasp.4.4-vasp.4.6
   LMAXPAW     = -100 max onsite density
   LMAXMIX     =    2 max onsite mixed and CHGCAR
   VOSKOWN=      0    Vosko Wilk Nusair interpolation
   ROPT   =    0.00000   0.00000   0.00000   0.00000
   ROPT   =    0.00000   0.00000   0.00000
 Ionic relaxation
   EDIFFG = -.3E-01   stopping-criterion for IOM
   NSW    =    500    number of steps for IOM
   NBLOCK =      1;   KBLOCK =    500    inner block; outer block 
   IBRION =      2    ionic relax: 0-MD 1-quasi-New 2-CG
   NFREE  =      1    steps in history (QN), initial steepest desc. (CG)
   ISIF   =      2    stress and relaxation
   IWAVPR =     11    prediction:  0-non 1-charg 2-wave 3-comb
   ISYM   =      2    0-nonsym 1-usesym 2-fastsym
   LCORR  =      T    Harris-Foulkes like correction to forces

   POTIM  = 0.5000    time-step for ionic-motion
   TEIN   =    0.0    initial temperature
   TEBEG  =    0.0;   TEEND  =   0.0 temperature during run
   SMASS  =  -3.00    Nose mass-parameter (am)
   estimated Nose-frequenzy (Omega)   =  0.10E-29 period in steps = 0.13E+47 mass=  -0.914E-26a.u.
   SCALEE = 1.0000    scale energy and forces
   NPACO  =    256;   APACO  = 10.0  distance and # of slots for P.C.
   PSTRESS=    0.0 pullay stress

  Mass of Ions in am
   POMASS = 196.97 63.55107.87195.08106.42 12.01 16.00
  Ionic Valenz
   ZVAL   =  11.00 11.00 11.00 10.00 10.00  4.00  6.00
  Atomic Wigner-Seitz radii
   RWIGS  =  -1.00 -1.00 -1.00 -1.00 -1.00 -1.00 -1.00
  virtual crystal weights 
   VCA    =   1.00  1.00  1.00  1.00  1.00  1.00  1.00
   NELECT =     593.0000    total number of electrons
   NUPDOWN=      -1.0000    fix difference up-down

 DOS related values:
   EMIN   =  10.00;   EMAX   =-10.00  energy-range for DOS
   EFERMI =   0.00
   ISMEAR =     0;   SIGMA  =   0.10  broadening in eV -4-tet -1-fermi 0-gaus

 Electronic relaxation 2 (details)
   IALGO  =     68    algorithm
   LDIAG  =      T    sub-space diagonalisation (order eigenvalues)
   LSUBROT=      F    optimize rotation matrix (better conditioning)
   TURBO    =      0    0=normal 1=particle mesh
   IRESTART =      0    0=no restart 2=restart with 2 vectors
   NREBOOT  =      0    no. of reboots
   NMIN     =      0    reboot dimension
   EREF     =   0.00    reference energy to select bands
   IMIX   =      4    mixing-type and parameters
     AMIX     =   0.40;   BMIX     =  1.00
     AMIX_MAG =   1.60;   BMIX_MAG =  1.00
     AMIN     =   0.10
     WC   =   100.;   INIMIX=   1;  MIXPRE=   1;  MAXMIX= -45

 Intra band minimization:
   WEIMIN = 0.0010     energy-eigenvalue tresh-hold
   EBREAK =  0.69E-08  absolut break condition
   DEPER  =   0.30     relativ break condition  

   TIME   =   0.40     timestep for ELM

  volume/ion in A,a.u.               =     140.35       947.13
  Fermi-wavevector in a.u.,A,eV,Ry     =   0.687696  1.299557  6.434543  0.472926
  Thomas-Fermi vector in A             =   1.768284
 
 Write flags
   LWAVE        =      F    write WAVECAR
   LDOWNSAMPLE  =      F    k-point downsampling of WAVECAR
   LCHARG       =      F    write CHGCAR
   LVTOT        =      F    write LOCPOT, total local potential
   LVHAR        =      F    write LOCPOT, Hartree potential only
   LELF         =      F    write electronic localiz. function (ELF)
   LORBIT       =      0    0 simple, 1 ext, 2 COOP (PROOUT), +10 PAW based schemes


 Dipole corrections
   LMONO  =      F    monopole corrections only (constant potential shift)
   LDIPOL =      F    correct potential (dipole corrections)
   IDIPOL =      0    1-x, 2-y, 3-z, 4-all directions 
   EPSILON=  1.0000000 bulk dielectric constant

 Exchange correlation treatment:
   GGA     =    RP    GGA type
   LEXCH   =     9    internal setting for exchange type
   LIBXC   =     F    Libxc                    
   VOSKOWN =     0    Vosko Wilk Nusair interpolation
   LHFCALC =     F    Hartree Fock is set to
   LHFONE  =     F    Hartree Fock one center treatment
   AEXX    =    0.0000 exact exchange contribution

 Linear response parameters
   LEPSILON=     F    determine dielectric tensor
   LRPA    =     F    only Hartree local field effects (RPA)
   LNABLA  =     F    use nabla operator in PAW spheres
   LVEL    =     F    velocity operator in full k-point grid
   CSHIFT  =0.1000    complex shift for real part using Kramers Kronig
   OMEGAMAX=  -1.0    maximum frequency
   DEG_THRESHOLD= 0.2000000E-02 threshold for treating states as degnerate
   RTIME   =   -0.100 relaxation time in fs
  (WPLASMAI=    0.000 imaginary part of plasma frequency in eV, 0.658/RTIME)
   DFIELD  = 0.0000000 0.0000000 0.0000000 field for delta impulse in time
 
  Optional k-point grid parameters
   LKPOINTS_OPT  =     F    use optional k-point grid
   KPOINTS_OPT_MODE=     1    mode for optional k-point grid
 
 Orbital magnetization related:
   ORBITALMAG=     F  switch on orbital magnetization
   LCHIMAG   =     F  perturbation theory with respect to B field
   DQ        =  0.001000  dq finite difference perturbation B field
   LLRAUG    =     F  two centre corrections for induced B field



--------------------------------------------------------------------------------------------------------


 conjugate gradient relaxation of ions
 charge density and potential will be updated during run
 non-spin polarized calculation
 RMM-DIIS sequential band-by-band and
  variant of blocked Davidson during initial phase
 perform sub-space diagonalisation
    before iterative eigenvector-optimisation
 modified Broyden-mixing scheme, WC =      100.0
 initial mixing is a Kerker type mixing with AMIX =  0.4000 and BMIX =      1.0000
 Hartree-type preconditioning will be used
 using additional bands           63
 reciprocal scheme for non local part
 use partial core corrections
 calculate Harris-corrections to forces 
   (improved forces if not selfconsistent)
 use gradient corrections 
 use of overlap-Matrix (Vanderbilt PP)
 Gauss-broadening in eV      SIGMA  =   0.10


--------------------------------------------------------------------------------------------------------


  energy-cutoff  :      500.00
  volume of cell :     8000.00
      direct lattice vectors                 reciprocal lattice vectors
    20.000000000  0.000000000  0.000000000     0.050000000  0.000000000  0.000000000
     0.000000000 20.000000000  0.000000000     0.000000000  0.050000000  0.000000000
     0.000000000  0.000000000 20.000000000     0.000000000  0.000000000  0.050000000

  length of vectors
    20.000000000 20.000000000 20.000000000     0.050000000  0.050000000  0.050000000


 
 k-points in units of 2pi/SCALE and weight: KPOINTS created by Atomic Simulation Env
   0.00000000  0.00000000  0.00000000       1.000
 
 k-points in reciprocal lattice and weights: KPOINTS created by Atomic Simulation Env
   0.00000000  0.00000000  0.00000000       1.000
 
 position of ions in fractional coordinates (direct lattice) 
   0.61374123  0.50284519  0.57116690
   0.41768371  0.38427617  0.49754906
   0.56798641  0.39175530  0.49969911
   0.28139501  0.50379648  0.32192700
   0.35876088  0.73490638  0.49211337
   0.64638138  0.27482308  0.49333232
   0.62502688  0.56855799  0.69521937
   0.69753920  0.61590142  0.43455166
   0.30870577  0.61883589  0.57631837
   0.42714621  0.69532901  0.62144434
   0.57475164  0.30855408  0.61670802
   0.49721853  0.43399256  0.60894189
   0.50147576  0.43139629  0.38671343
   0.50208064  0.57397809  0.38845925
   0.72311478  0.48809416  0.49938446
   0.28426271  0.50093423  0.65475006
   0.37740096  0.26554446  0.51647983
   0.50136623  0.63245034  0.28236951
   0.39568669  0.56931682  0.31674821
   0.67791749  0.38742206  0.42402076
   0.68212013  0.38497118  0.56807909
   0.43897866  0.32004847  0.61526560
   0.48938594  0.50114523  0.49453643
   0.36745717  0.50029089  0.42965006
   0.25039671  0.49796798  0.52057198
   0.50030882  0.74318260  0.49911833
   0.62376034  0.42729754  0.30444688
   0.69733699  0.61901590  0.58042213
   0.30441944  0.62447442  0.41862445
   0.30357634  0.37464496  0.41460023
   0.30950714  0.37359006  0.58811863
   0.57326555  0.69286568  0.38135199
   0.42639754  0.30068164  0.38204725
   0.60702352  0.50556844  0.42620221
   0.56755726  0.61428328  0.50255245
   0.49490717  0.57167188  0.60960233
   0.72553693  0.49654588  0.37130306
   0.64145043  0.72269607  0.50271162
   0.50327016  0.27128232  0.50164546
   0.50378337  0.36639310  0.71918903
   0.50420808  0.49894724  0.72192635
   0.50461637  0.36043878  0.27986742
   0.42866427  0.68061836  0.37882309
   0.56843051  0.31553896  0.38541871
   0.37749286  0.49750690  0.57010713
   0.42624958  0.61795564  0.49918991
   0.73355611  0.48778836  0.63322711
   0.50586877  0.63483790  0.72898808
   0.50283550  0.50170007  0.27698020
   0.62011644  0.42459818  0.68313496
   0.61995312  0.57483807  0.31399450
   0.38857540  0.42990263  0.69024086
   0.38677950  0.57393493  0.68910703
   0.39231961  0.42486688  0.31250877
   0.57156138  0.68802876  0.61637200
   0.14666999  0.49489118  0.50371615
   0.08916718  0.49515990  0.50728253
 
 position of ions in cartesian coordinates  (Angst):
  12.27482464 10.05690383 11.42333794
   8.35367421  7.68552345  9.95098126
  11.35972829  7.83510606  9.99398212
   5.62790025 10.07592955  6.43853998
   7.17521754 14.69812763  9.84226745
  12.92762761  5.49646153  9.86664649
  12.50053757 11.37115985 13.90438741
  13.95078409 12.31802845  8.69103330
   6.17411549 12.37671787 11.52636740
   8.54292411 13.90658028 12.42888687
  11.49503279  6.17108154 12.33416037
   9.94437062  8.67985116 12.17883780
  10.02951521  8.62792581  7.73426859
  10.04161287 11.47956182  7.76918505
  14.46229566  9.76188328  9.98768925
   5.68525419 10.01868461 13.09500118
   7.54801924  5.31088918 10.32959665
  10.02732469 12.64900672  5.64739027
   7.91373375 11.38633635  6.33496419
  13.55834973  7.74844129  8.48041518
  13.64240255  7.69942367 11.36158187
   8.77957311  6.40096930 12.30531203
   9.78771876 10.02290463  9.89072869
   7.34914343 10.00581777  8.59300118
   5.00793428  9.95935965 10.41143970
  10.00617643 14.86365194  9.98236661
  12.47520687  8.54595079  6.08893751
  13.94673977 12.38031803 11.60844259
   6.08838874 12.48948833  8.37248895
   6.07152685  7.49289911  8.29200466
   6.19014276  7.47180121 11.76237256
  11.46531108 13.85731353  7.62703979
   8.52795074  6.01363289  7.64094502
  12.14047041 10.11136885  8.52404411
  11.35114521 12.28566562 10.05104907
   9.89814338 11.43343751 12.19204669
  14.51073856  9.93091756  7.42606130
  12.82900869 14.45392137 10.05423244
  10.06540329  5.42564645 10.03290925
  10.07566731  7.32786194 14.38378065
  10.08416159  9.97894483 14.43852693
  10.09232745  7.20877557  5.59734831
   8.57328548 13.61236726  7.57646174
  11.36861011  6.31077914  7.70837423
   7.54985726  9.95013801 11.40214260
   8.52499164 12.35911275  9.98379815
  14.67112216  9.75576713 12.66454227
  10.11737539 12.69675799 14.57976157
  10.05671007 10.03400144  5.53960409
  12.40232888  8.49196368 13.66269926
  12.39906250 11.49676149  6.27989004
   7.77150806  8.59805266 13.80481723
   7.73558995 11.47869855 13.78214051
   7.84639213  8.49733762  6.25017536
  11.43122760 13.76057529 12.32744005
   2.93339983  9.89782354 10.07432305
   1.78334352  9.90319791 10.14565056
 


--------------------------------------------------------------------------------------------------------


 k-point   1 :   0.0000 0.0000 0.0000  plane waves:  203269

 maximum and minimum number of plane-waves per node :     12716    12694

 maximum number of plane-waves:    203269
 maximum index in each direction: 
   IXMAX=   36   IYMAX=   36   IZMAX=   36
   IXMIN=  -36   IYMIN=  -36   IZMIN=  -36


 total amount of memory used by VASP MPI-rank0   105908. kBytes
=======================================================================

   base      :      30000. kBytes
   nonl-proj :      24407. kBytes
   fftplans  :      13383. kBytes
   grid      :      28852. kBytes
   one-center:         62. kBytes
   wavefun   :       9204. kBytes
 
     INWAV:  cpu time      0.0001: real time      0.0001
 Broyden mixing: mesh for mixing (old mesh)
   NGX = 73   NGY = 73   NGZ = 73
  (NGX  =300   NGY  =300   NGZ  =300)
  gives a total of 389017 points

 initial charge density was supplied:
 charge density of overlapping atoms calculated
 number of electron     593.0000000 magnetization 
 keeping initial charge density in first step


--------------------------------------------------------------------------------------------------------


 Maximum index for augmentation-charges          208 (set IRDMAX)


--------------------------------------------------------------------------------------------------------


 First call to EWALD:  gamma=   0.089
 Maximum number of real-space cells 3x 3x 3
 Maximum number of reciprocal cells 3x 3x 3

    FEWALD:  cpu time      0.0024: real time      0.0024


--------------------------------------- Iteration      1(   1)  ---------------------------------------


    POTLOK:  cpu time      0.2850: real time      0.4877
    SETDIJ:  cpu time      0.0087: real time      0.0091
     EDDAV:  cpu time     11.4804: real time     11.6091
       DOS:  cpu time      0.0052: real time      0.0055
    --------------------------------------------
      LOOP:  cpu time     11.7793: real time     12.1115

 eigenvalue-minimisations  :   752
 total energy-change (2. order) : 0.4451577E+04  (-0.1850183E+05)
 number of electron     593.0000000 magnetization 
 augmentation part      593.0000000 magnetization 

 Free energy of the ion-electron system (eV)
  ---------------------------------------------------
  alpha Z        PSCENC =       337.48862869
  Ewald energy   TEWEN  =    140615.55446995
  -Hartree energ DENC   =   -192747.63003590
  -exchange      EXHF   =         0.00000000
  -V(xc)+E(xc)   XCENC  =       254.14638335
  PAW double counting   =     51190.70284042   -50545.41323779
  entropy T*S    EENTRO =        -0.27179511
  eigenvalues    EBANDS =       983.64731590
  atomic energy  EATOM  =     54363.35213531
  Solvation  Ediel_sol  =         0.00000000
  ---------------------------------------------------
  free energy    TOTEN  =      4451.57670482 eV

  energy without entropy =     4451.84849993  energy(sigma->0) =     4451.71260238


--------------------------------------------------------------------------------------------------------




--------------------------------------- Iteration      1(   2)  ---------------------------------------


     EDDAV:  cpu time     12.6007: real time     12.6892
       DOS:  cpu time      0.0011: real time      0.0011
    --------------------------------------------
      LOOP:  cpu time     12.6019: real time     12.6904

 eigenvalue-minimisations  :   864
 total energy-change (2. order) :-0.3721548E+04  (-0.3233297E+04)
 number of electron     593.0000000 magnetization 
 augmentation part      593.0000000 magnetization 

 Free energy of the ion-electron system (eV)
  ---------------------------------------------------
  alpha Z        PSCENC =       337.48862869
  Ewald energy   TEWEN  =    140615.55446995
  -Hartree energ DENC   =   -192747.63003590
  -exchange      EXHF   =         0.00000000
  -V(xc)+E(xc)   XCENC  =       254.14638335
  PAW double counting   =     51190.70284042   -50545.41323779
  entropy T*S    EENTRO =        -0.14702875
  eigenvalues    EBANDS =     -2738.02569846
  atomic energy  EATOM  =     54363.35213531
  Solvation  Ediel_sol  =         0.00000000
  ---------------------------------------------------
  free energy    TOTEN  =       730.02845682 eV

  energy without entropy =      730.17548558  energy(sigma->0) =      730.10197120


--------------------------------------------------------------------------------------------------------




--------------------------------------- Iteration      1(   3)  ---------------------------------------


     EDDAV:  cpu time     14.5890: real time     14.6911
       DOS:  cpu time      0.0019: real time      0.0019
    --------------------------------------------
      LOOP:  cpu time     14.5909: real time     14.6930

 eigenvalue-minimisations  :  1040
 total energy-change (2. order) :-0.8341468E+03  (-0.7821016E+03)
 number of electron     593.0000000 magnetization 
 augmentation part      593.0000000 magnetization 

 Free energy of the ion-electron system (eV)
  ---------------------------------------------------
  alpha Z        PSCENC =       337.48862869
  Ewald energy   TEWEN  =    140615.55446995
  -Hartree energ DENC   =   -192747.63003590
  -exchange      EXHF   =         0.00000000
  -V(xc)+E(xc)   XCENC  =       254.14638335
  PAW double counting   =     51190.70284042   -50545.41323779
  entropy T*S    EENTRO =        -0.14721511
  eigenvalues    EBANDS =     -3572.17228539
  atomic energy  EATOM  =     54363.35213531
  Solvation  Ediel_sol  =         0.00000000
  ---------------------------------------------------
  free energy    TOTEN  =      -104.11831646 eV

  energy without entropy =     -103.97110135  energy(sigma->0) =     -104.04470891


--------------------------------------------------------------------------------------------------------




--------------------------------------- Iteration      1(   4)  ---------------------------------------


     EDDAV:  cpu time     16.1404: real time     16.2579
       DOS:  cpu time      0.0007: real time      0.0007
    --------------------------------------------
      LOOP:  cpu time     16.1411: real time     16.2585

 eigenvalue-minimisations  :  1168
 total energy-change (2. order) :-0.9662152E+02  (-0.8460822E+02)
 number of electron     593.0000000 magnetization 
 augmentation part      593.0000000 magnetization 

 Free energy of the ion-electron system (eV)
  ---------------------------------------------------
  alpha Z        PSCENC =       337.48862869
  Ewald energy   TEWEN  =    140615.55446995
  -Hartree energ DENC   =   -192747.63003590
  -exchange      EXHF   =         0.00000000
  -V(xc)+E(xc)   XCENC  =       254.14638335
  PAW double counting   =     51190.70284042   -50545.41323779
  entropy T*S    EENTRO =        -0.24942970
  eigenvalues    EBANDS =     -3668.69158800
  atomic energy  EATOM  =     54363.35213531
  Solvation  Ediel_sol  =         0.00000000
  ---------------------------------------------------
  free energy    TOTEN  =      -200.73983366 eV

  energy without entropy =     -200.49040396  energy(sigma->0) =     -200.61511881


--------------------------------------------------------------------------------------------------------




--------------------------------------- Iteration      1(   5)  ---------------------------------------


     EDDAV:  cpu time     15.7432: real time     15.8487
       DOS:  cpu time      0.0010: real time      0.0035
    CHARGE:  cpu time      0.6869: real time      0.6912
    MIXING:  cpu time      0.0073: real time      0.0074
    --------------------------------------------
      LOOP:  cpu time     16.4384: real time     16.5508

 eigenvalue-minimisations  :  1136
 total energy-change (2. order) :-0.5772074E+01  (-0.5514030E+01)
 number of electron     592.9999949 magnetization 
 augmentation part      254.0820671 magnetization 

 Broyden mixing:
  rms(total) = 0.52804E+01    rms(broyden)= 0.52802E+01
  rms(prec ) = 0.56359E+01
  weight for this iteration     100.00

 Free energy of the ion-electron system (eV)
  ---------------------------------------------------
  alpha Z        PSCENC =       337.48862869
  Ewald energy   TEWEN  =    140615.55446995
  -Hartree energ DENC   =   -192747.63003590
  -exchange      EXHF   =         0.00000000
  -V(xc)+E(xc)   XCENC  =       254.14638335
  PAW double counting   =     51190.70284042   -50545.41323779
  entropy T*S    EENTRO =        -0.27443121
  eigenvalues    EBANDS =     -3674.43866095
  atomic energy  EATOM  =     54363.35213531
  Solvation  Ediel_sol  =         0.00000000
  ---------------------------------------------------
  free energy    TOTEN  =      -206.51190813 eV

  energy without entropy =     -206.23747692  energy(sigma->0) =     -206.37469252


--------------------------------------------------------------------------------------------------------




--------------------------------------- Iteration      1(   6)  ---------------------------------------


    POTLOK:  cpu time      0.2728: real time      0.2746
    SETDIJ:  cpu time      0.0044: real time      0.0044
    EDDIAG:  cpu time      2.2214: real time      2.2376
  RMM-DIIS:  cpu time     10.5286: real time     10.5990
    ORTHCH:  cpu time      0.1461: real time      0.1469
       DOS:  cpu time      0.0021: real time      0.0021
    CHARGE:  cpu time      0.6815: real time      0.6858
    MIXING:  cpu time      0.0083: real time      0.0571
    --------------------------------------------
      LOOP:  cpu time     13.8651: real time     14.0074

 eigenvalue-minimisations  :   895
 total energy-change (2. order) :-0.2552103E+02  (-0.3093388E+02)
 number of electron     592.9999943 magnetization 
 augmentation part      259.4659980 magnetization 

 Broyden mixing:
  rms(total) = 0.51558E+01    rms(broyden)= 0.51556E+01
  rms(prec ) = 0.62188E+01
  weight for this iteration     100.00

 eigenvalues of (default mixing * dielectric matrix)
  average eigenvalue GAMMA=   0.5285
  0.5285

 Free energy of the ion-electron system (eV)
  ---------------------------------------------------
  alpha Z        PSCENC =       337.48862869
  Ewald energy   TEWEN  =    140615.55446995
  -Hartree energ DENC   =   -192359.59471908
  -exchange      EXHF   =         0.00000000
  -V(xc)+E(xc)   XCENC  =       231.80766651
  PAW double counting   =     53560.72703687   -52859.10352315
  entropy T*S    EENTRO =        -0.28704301
  eigenvalues    EBANDS =     -4121.97758743
  atomic energy  EATOM  =     54363.35213531
  Solvation  Ediel_sol  =         0.00000000
  ---------------------------------------------------
  free energy    TOTEN  =      -232.03293534 eV

  energy without entropy =     -231.74589234  energy(sigma->0) =     -231.88941384


--------------------------------------------------------------------------------------------------------




--------------------------------------- Iteration      1(   7)  ---------------------------------------


    POTLOK:  cpu time      0.2688: real time      0.2707
    SETDIJ:  cpu time      0.0045: real time      0.0046
    EDDIAG:  cpu time      2.2374: real time      2.2552
  RMM-DIIS:  cpu time      8.6154: real time      8.6767
    ORTHCH:  cpu time      0.1446: real time      0.1455
       DOS:  cpu time      0.0035: real time      0.0035
[...]
  4.941   0.087   0.262  -0.021  -0.115  -2.928  -0.208  -0.263  -0.013   0.128   0.219  -0.009   0.064  -0.008  -0.019  -0.004
  0.087   5.300   0.119  -0.022   0.072  -0.208  -3.223  -0.100   0.062  -0.084  -0.075   0.090   0.027  -0.007  -0.001  -0.003
  0.262   0.119   5.299  -0.081  -0.048  -0.264  -0.100  -3.215   0.013   0.114  -0.021  -0.002   0.001  -0.017   0.004  -0.001
 -0.021  -0.022  -0.081   5.104   0.257  -0.013   0.062   0.013  -2.985  -0.167  -0.375   0.076  -0.001   0.002  -0.042  -0.000
 -0.115   0.072  -0.048   0.257   5.050   0.128  -0.084   0.114  -0.167  -2.979  -0.131  -0.000   0.005  -0.030  -0.055  -0.002
 -2.928  -0.208  -0.264  -0.013   0.128   2.834   0.300   0.262   0.038  -0.135  -0.212   0.026  -0.059   0.007   0.007   0.002
 -0.208  -3.223  -0.100   0.062  -0.084   0.300   3.074   0.082  -0.093   0.094   0.049  -0.069  -0.033  -0.006   0.001   0.002
 -0.263  -0.100  -3.215   0.013   0.114   0.262   0.082   3.055   0.040  -0.165   0.013  -0.004   0.001   0.013  -0.002  -0.001
 -0.013   0.062   0.013  -2.985  -0.167   0.038  -0.093   0.040   2.810   0.093   0.330  -0.077   0.002   0.012   0.031   0.000
  0.128  -0.084   0.114  -0.167  -2.979  -0.135   0.094  -0.165   0.093   2.841   0.120  -0.004   0.005   0.029   0.064  -0.000
  0.219  -0.075  -0.021  -0.375  -0.131  -0.212   0.049   0.013   0.330   0.120   2.868  -0.745  -0.020  -0.017   0.008   0.001
 -0.009   0.090  -0.002   0.076  -0.000   0.026  -0.069  -0.004  -0.077  -0.004  -0.745   0.218   0.000   0.010   0.008  -0.000
  0.064   0.027   0.001  -0.001   0.005  -0.059  -0.033   0.001   0.002   0.005  -0.020   0.000   0.202  -0.005  -0.017  -0.008
 -0.008  -0.007  -0.017   0.002  -0.030   0.007  -0.006   0.013   0.012   0.029  -0.017   0.010  -0.005   0.210   0.018  -0.000
 -0.019  -0.001   0.004  -0.042  -0.055   0.007   0.001  -0.002   0.031   0.064   0.008   0.008  -0.017   0.018   0.215   0.001
 -0.004  -0.003  -0.001  -0.000  -0.002   0.002   0.002  -0.001   0.000  -0.000   0.001  -0.000  -0.008  -0.000   0.001   0.000
  0.000   0.003   0.000  -0.005  -0.001  -0.000  -0.001  -0.000   0.001  -0.000   0.001  -0.001  -0.000  -0.008  -0.001   0.000
  0.003   0.000   0.002  -0.005  -0.005  -0.000   0.000  -0.001   0.002   0.001  -0.000  -0.000   0.001  -0.001  -0.008  -0.000


------------------------ aborting loop because EDIFF is reached ----------------------------------------


    CHARGE:  cpu time      0.6723: real time      0.6767
    FORLOC:  cpu time      0.0386: real time      0.0387
    FORNL :  cpu time      2.7596: real time      2.7724
    STRESS:  cpu time      5.5814: real time      5.6142
    FORCOR:  cpu time      0.3068: real time      0.3087
    FORHAR:  cpu time      0.0978: real time      0.0985
    MIXING:  cpu time      0.0139: real time      0.0140
    OFIELD:  cpu time      0.0001: real time      0.0001

  FORCE on cell =-STRESS in cart. coord.  units (eV):
  Direction    XX          YY          ZZ          XY          YZ          ZX
  --------------------------------------------------------------------------------------
  Alpha Z   337.48863   337.48863   337.48863
  Ewald   54472.78413 44429.84115 41712.76775   -99.86762     6.26964   364.06961
  Hartree 71267.08353 61986.00313 59563.70716  -143.67767   -92.74056   303.57523
  E(xc)   -3000.31929 -3004.17150 -3005.93601     0.06867     0.30302    -0.05937
  Local  ************************************   246.00203    85.40195  -679.79977
  n-local  -485.17410  -477.49836  -475.16944     2.89785    -0.41450     1.58133
  augment  4183.15723  4187.23764  4191.48280    -2.31404     0.34040     3.57013
  Kinetic  7471.12097  7506.44221  7517.46079    -3.00124     0.79871     7.03905
  Fock        0.00000     0.00000     0.00000     0.00000     0.00000     0.00000
  -------------------------------------------------------------------------------------
  Total      -0.81939    -0.64609    -0.61099     0.10799    -0.04133    -0.02379
  in kB      -0.16410    -0.12939    -0.12236     0.02163    -0.00828    -0.00476
  external pressure =       -0.14 kB  Pullay stress =        0.00 kB


 VOLUME and BASIS-vectors are now :
 -----------------------------------------------------------------------------
  energy-cutoff  :      500.00
  volume of cell :     8000.00
      direct lattice vectors                 reciprocal lattice vectors
    20.000000000  0.000000000  0.000000000     0.050000000  0.000000000  0.000000000
     0.000000000 20.000000000  0.000000000     0.000000000  0.050000000  0.000000000
     0.000000000  0.000000000 20.000000000     0.000000000  0.000000000  0.050000000

  length of vectors
    20.000000000 20.000000000 20.000000000     0.050000000  0.050000000  0.050000000


 FORCES acting on ions
    electron-ion (+dipol)            ewald-force                    non-local-force                 convergence-correction
 -----------------------------------------------------------------------------------------------
   -.890E+03 -.145E+03 -.634E+03   0.890E+03 0.144E+03 0.634E+03   -.803E+00 0.855E+00 0.195E+00   0.911E-04 0.766E-04 -.524E-03
   0.726E+03 0.899E+03 0.917E+02   -.726E+03 -.898E+03 -.911E+02   0.440E+00 -.550E+00 -.581E+00   -.142E-03 0.460E-04 0.351E-06
   -.523E+03 0.919E+03 -.582E+01   0.523E+03 -.918E+03 0.513E+01   0.276E+00 -.106E+01 0.694E+00   0.565E-04 0.377E-04 -.253E-04
   0.145E+04 -.806E+01 0.117E+04   -.145E+04 0.772E+01 -.117E+04   -.500E+01 0.344E+00 -.143E+01   0.127E-03 -.240E-04 0.250E-04
   0.968E+03 -.159E+04 0.324E+02   -.966E+03 0.158E+04 -.337E+02   -.247E+01 0.271E+01 0.129E+01   -.194E-03 0.142E-03 0.134E-04
   -.107E+04 0.166E+04 0.539E+02   0.106E+04 -.166E+04 -.551E+02   0.200E+01 -.312E+01 0.116E+01   0.995E-04 -.842E-05 -.228E-04
   -.955E+03 -.574E+03 -.152E+04   0.954E+03 0.573E+03 0.152E+04   0.958E+00 0.775E+00 0.835E+00   0.172E-03 0.406E-03 -.746E-04
   -.152E+04 -.962E+03 0.539E+03   0.152E+04 0.961E+03 -.539E+03   0.726E+00 0.619E+00 -.401E+00   -.183E-03 -.313E-03 -.234E-03
   0.142E+04 -.100E+04 -.583E+03   -.141E+04 0.100E+04 0.583E+03   -.110E+01 0.227E+01 0.242E-01   -.219E-03 -.210E-03 0.223E-03
   0.546E+03 -.150E+04 -.964E+03   -.545E+03 0.150E+04 0.964E+03   -.122E+01 0.211E+01 0.126E+00   -.888E-04 0.980E-04 0.236E-03
   -.637E+03 0.157E+04 -.983E+03   0.636E+03 -.157E+04 0.983E+03   0.770E+00 -.138E+01 -.239E+00   -.705E-04 -.152E-03 -.386E-03
   0.341E+01 0.489E+03 -.914E+03   -.479E+01 -.488E+03 0.916E+03   0.137E+01 -.101E+01 -.210E+01   -.346E-03 -.197E-03 -.340E-03
   0.311E+02 0.604E+03 0.939E+03   -.305E+02 -.604E+03 -.942E+03   -.633E+00 -.403E+00 0.234E+01   0.568E-04 0.814E-04 -.249E-03
   -.487E+02 -.623E+03 0.819E+03   0.492E+02 0.623E+03 -.819E+03   -.447E+00 -.278E+00 0.887E+00   0.329E-03 -.155E-03 -.412E-03
   -.185E+04 0.907E+01 0.146E+01   0.184E+04 -.109E+02 -.181E+01   0.253E+01 0.187E+01 0.353E+00   -.194E-03 0.110E-03 -.489E-03
   0.152E+04 -.241E+02 -.121E+04   -.151E+04 0.234E+02 0.121E+04   -.863E+01 0.692E+00 0.295E+01   -.945E-04 -.221E-04 0.114E-03
   0.986E+03 0.172E+04 -.806E+02   -.977E+03 -.171E+04 0.818E+02   -.828E+01 -.556E+01 -.118E+01   -.140E-03 -.451E-04 0.706E-04
   -.660E+02 -.110E+04 0.177E+04   0.651E+02 0.109E+04 -.177E+04   0.883E+00 0.425E+01 -.748E+01   0.205E-03 -.134E-03 -.216E-03
   0.928E+03 -.565E+03 0.153E+04   -.925E+03 0.565E+03 -.153E+04   -.349E+01 -.106E+00 -.197E+01   0.713E-04 -.157E-03 -.203E-03
   -.149E+04 0.989E+03 0.685E+03   0.149E+04 -.987E+03 -.686E+03   0.238E+01 -.242E+01 0.625E+00   0.951E-04 0.337E-03 -.138E-03
   -.152E+04 0.102E+04 -.615E+03   0.151E+04 -.102E+04 0.616E+03   0.170E+01 -.405E+01 -.789E+00   0.151E-03 -.121E-03 -.456E-03
   0.526E+03 0.152E+04 -.103E+04   -.525E+03 -.152E+04 0.103E+04   -.115E+01 -.151E+01 0.144E+01   -.917E-04 0.790E-04 -.145E-03
   0.126E+03 -.607E+02 0.156E+01   -.127E+03 0.617E+02 -.160E+01   0.220E+00 -.101E+01 0.397E-01   0.101E-03 -.277E-03 -.645E-04
   0.113E+04 0.925E+01 0.518E+03   -.113E+04 -.962E+01 -.517E+03   -.186E+00 0.376E+00 -.101E+01   -.180E-03 -.188E-03 -.205E-03
   0.158E+04 0.267E+02 -.251E+02   -.158E+04 -.263E+02 0.273E+02   -.159E+01 -.415E+00 -.216E+01   -.294E-04 -.139E-03 0.966E-04
   -.278E+02 -.181E+04 -.109E+02   0.283E+02 0.181E+04 0.110E+02   -.491E+00 0.356E+01 -.114E+00   0.242E-03 0.865E-04 0.195E-05
   -.983E+03 0.566E+03 0.160E+04   0.982E+03 -.565E+03 -.159E+04   0.174E+01 -.958E+00 -.303E+01   0.347E-04 0.262E-03 -.608E-04
   -.148E+04 -.954E+03 -.641E+03   0.148E+04 0.953E+03 0.640E+03   0.335E+01 0.742E+00 0.794E+00   -.242E-04 0.100E-03 -.251E-03
   0.149E+04 -.934E+03 0.598E+03   -.148E+04 0.933E+03 -.597E+03   -.495E+01 0.126E+00 -.771E+00   -.239E-03 -.171E-03 -.198E-03
   0.148E+04 0.962E+03 0.620E+03   -.147E+04 -.960E+03 -.620E+03   -.478E+01 -.156E+01 0.742E-01   -.534E-04 -.735E-05 -.227E-04
   0.146E+04 0.102E+04 -.645E+03   -.146E+04 -.102E+04 0.645E+03   -.388E+01 -.271E+01 -.305E+00   -.180E-03 0.761E-04 0.443E-05
   -.647E+03 -.156E+04 0.916E+03   0.645E+03 0.156E+04 -.915E+03   0.186E+01 0.297E+01 -.150E+01   0.264E-03 -.172E-03 -.249E-03
   0.592E+03 0.155E+04 0.955E+03   -.590E+03 -.155E+04 -.954E+03   -.185E+01 -.294E+01 -.141E+01   -.876E-04 0.935E-04 -.181E-03
   -.830E+03 -.103E+03 0.559E+03   0.829E+03 0.103E+03 -.560E+03   0.102E+01 -.419E+00 0.545E+00   0.415E-03 0.148E-03 -.303E-03
   -.530E+03 -.909E+03 -.578E+02   0.529E+03 0.908E+03 0.582E+02   0.118E+01 0.398E+00 -.443E+00   0.404E-03 0.638E-05 -.246E-03
   0.187E+02 -.610E+03 -.845E+03   -.193E+02 0.610E+03 0.844E+03   0.629E+00 0.444E+00 0.416E+00   -.999E-04 -.397E-04 0.175E-04
   -.154E+04 -.257E+02 0.963E+03   0.153E+04 0.253E+02 -.959E+03   0.491E+01 0.425E+00 -.392E+01   -.262E-03 0.130E-03 -.488E-04
   -.942E+03 -.147E+04 -.254E+02   0.939E+03 0.146E+04 0.257E+02   0.301E+01 0.512E+01 -.315E+00   0.806E-04 -.561E-04 -.609E-04
   -.792E+02 0.170E+04 0.250E+02   0.776E+02 -.170E+04 -.246E+02   0.157E+01 -.207E+01 -.438E+00   0.102E-04 0.444E-04 -.286E-04
   -.435E+02 0.942E+03 -.160E+04   0.435E+02 -.939E+03 0.159E+04   0.660E-01 -.375E+01 0.445E+01   -.337E-03 -.169E-03 -.272E-03
   -.474E+02 -.342E+02 -.170E+04   0.466E+02 0.341E+02 0.170E+04   0.815E+00 0.106E+00 0.233E+01   -.370E-03 0.158E-03 -.189E-03
   -.288E+02 0.977E+03 0.155E+04   0.287E+02 -.975E+03 -.154E+04   0.533E-01 -.251E+01 -.550E+01   -.739E-05 0.452E-04 -.170E-03
   0.548E+03 -.143E+04 0.851E+03   -.547E+03 0.143E+04 -.851E+03   -.992E+00 0.387E+01 -.103E+00   0.395E-04 -.623E-04 -.366E-03
   -.515E+03 0.143E+04 0.893E+03   0.514E+03 -.143E+04 -.892E+03   0.868E+00 -.160E+01 -.408E+00   -.162E-04 0.646E-04 -.188E-03
   0.866E+03 -.243E+02 -.476E+03   -.867E+03 0.241E+02 0.476E+03   0.253E+00 0.175E+00 -.354E-01   -.258E-03 -.163E-03 0.162E-03
   0.563E+03 -.901E+03 -.446E+02   -.562E+03 0.901E+03 0.442E+02   -.954E+00 0.622E+00 0.360E+00   -.941E-04 -.938E-04 -.430E-04
   -.151E+04 0.423E+02 -.943E+03   0.150E+04 -.430E+02 0.940E+03   0.535E+01 0.730E+00 0.319E+01   0.253E-03 0.929E-04 -.205E-03
   -.465E+02 -.911E+03 -.149E+04   0.465E+02 0.907E+03 0.148E+04   -.238E-02 0.376E+01 0.485E+01   -.119E-03 0.424E-03 0.220E-03
   -.611E+02 0.452E+02 0.176E+04   0.604E+02 -.446E+02 -.175E+04   0.681E+00 -.598E+00 -.324E+01   0.106E-03 0.212E-04 -.144E-03
   -.888E+03 0.545E+03 -.143E+04   0.887E+03 -.545E+03 0.142E+04   0.151E+01 -.502E+00 0.226E+01   0.586E-04 -.273E-04 -.255E-03
   -.962E+03 -.574E+03 0.140E+04   0.960E+03 0.572E+03 -.139E+04   0.261E+01 0.181E+01 -.314E+01   0.174E-03 -.851E-04 -.467E-04
   0.799E+03 0.524E+03 -.147E+04   -.797E+03 -.523E+03 0.147E+04   -.159E+01 -.156E+01 0.230E+01   -.392E-03 0.131E-03 -.238E-03
   0.771E+03 -.595E+03 -.141E+04   -.769E+03 0.594E+03 0.141E+04   -.183E+01 0.166E+01 0.276E+01   -.407E-03 -.152E-04 -.132E-04
   0.808E+03 0.599E+03 0.139E+04   -.806E+03 -.598E+03 -.139E+04   -.226E+01 -.789E+00 -.142E+01   0.591E-05 0.392E-05 -.132E-03
   -.526E+03 -.135E+04 -.881E+03   0.525E+03 0.135E+04 0.879E+03   0.119E+01 0.259E+01 0.236E+01   0.153E-03 0.207E-03 0.742E-05
   0.279E+03 0.129E+02 0.334E+02   -.257E+03 -.131E+02 -.353E+02   -.215E+02 0.139E+00 0.190E+01   0.299E-04 -.489E-04 0.229E-04
   0.608E+03 0.846E+01 -.154E+02   -.668E+03 -.815E+01 0.191E+02   0.601E+02 -.313E+00 -.370E+01   0.112E-03 -.757E-04 0.462E-04
 -----------------------------------------------------------------------------------------------
   -.269E+02 -.990E+00 0.757E+01   0.227E-11 0.215E-11 -.313E-12   0.269E+02 0.988E+00 -.756E+01   -.983E-03 0.182E-03 -.684E-02
 
 
 POSITION                                       TOTAL-FORCE (eV/Angst)
 -----------------------------------------------------------------------------------
     12.27482     10.05690     11.42334         0.000296      0.001726     -0.003391
      8.35367      7.68552      9.95098        -0.010082      0.003243     -0.000076
     11.35973      7.83511      9.99398        -0.010501      0.001429     -0.001860
      5.62790     10.07593      6.43854         0.006668      0.002845     -0.002222
      7.17522     14.69813      9.84227        -0.001921      0.002007      0.001006
     12.92763      5.49646      9.86665         0.001317      0.000277     -0.000758
     12.50054     11.37116     13.90439         0.009414     -0.000880      0.000708
     13.95078     12.31803      8.69103        -0.002422      0.001903      0.002000
      6.17412     12.37672     11.52637         0.005314      0.004406      0.007025
      8.54292     13.90658     12.42889         0.000619     -0.005575     -0.005303
     11.49503      6.17108     12.33416         0.003523     -0.000586     -0.001997
      9.94437      8.67985     12.17884        -0.001828     -0.001812     -0.001064
     10.02952      8.62793      7.73427         0.008568     -0.002667      0.003720
     10.04161     11.47956      7.76919         0.016474      0.003038      0.006404
     14.46230      9.76188      9.98769        -0.001660      0.006130     -0.000360
      5.68525     10.01868     13.09500         0.003284     -0.001166      0.015978
      7.54802      5.31089     10.32960        -0.001549     -0.010591      0.008986
     10.02732     12.64901      5.64739        -0.000978      0.000364     -0.000327
      7.91373     11.38634      6.33496         0.002980     -0.000970      0.005827
     13.55835      7.74844      8.48042        -0.001398      0.000061      0.002238
     13.64240      7.69942     11.36158        -0.000848     -0.000448     -0.005009
      8.77957      6.40097     12.30531        -0.002383      0.000739     -0.004858
      9.78772     10.02290      9.89073        -0.011365     -0.009704     -0.003965
      7.34914     10.00582      8.59300        -0.016229      0.003369      0.003909
      5.00793      9.95936     10.41144        -0.009027     -0.003513      0.010018
     10.00618     14.86365      9.98237         0.001106     -0.004679     -0.001269
     12.47521      8.54595      6.08894        -0.001348     -0.002344     -0.001616
     13.94674     12.38032     11.60844        -0.003029     -0.000368     -0.008659
      6.08839     12.48949      8.37249         0.005014      0.012017     -0.016523
      6.07153      7.49290      8.29200         0.002194     -0.012550     -0.022465
      6.19014      7.47180     11.76237         0.002236     -0.005436      0.012408
     11.46531     13.85731      7.62704         0.006004     -0.000261      0.003231
      8.52795      6.01363      7.64095         0.001663      0.003070     -0.002909
     12.14047     10.11137      8.52404        -0.007429     -0.004100      0.006515
     11.35115     12.28567     10.05105        -0.000523      0.012274     -0.003596
      9.89814     11.43344     12.19205        -0.006963      0.000582     -0.006954
     14.51074      9.93092      7.42606        -0.004560      0.000264      0.005809
     12.82901     14.45392     10.05423        -0.000549     -0.006185      0.001156
     10.06540      5.42565     10.03291        -0.003792      0.003964     -0.000490
     10.07567      7.32786     14.38378         0.001192      0.001794      0.003925
     10.08416      9.97894     14.43853         0.000940      0.002508      0.004297
     10.09233      7.20878      5.59735        -0.006075      0.000390     -0.000119
      8.57329     13.61237      7.57646         0.002471      0.003104      0.004059
     11.36861      6.31078      7.70837         0.002077     -0.001346     -0.000812
      7.54986      9.95014     11.40214         0.011096     -0.001021      0.000171
      8.52499     12.35911      9.98380        -0.003198     -0.000802     -0.001600
     14.67112      9.75577     12.66454        -0.003554      0.001130     -0.000708
     10.11738     12.69676     14.57976        -0.003164     -0.001320     -0.000464
     10.05671     10.03400      5.53960         0.000478     -0.000543     -0.000659
     12.40233      8.49196     13.66270         0.007876     -0.000354     -0.001322
     12.39906     11.49676      6.27989         0.008916      0.002848     -0.003631
      7.77151      8.59805     13.80482        -0.003975      0.003360      0.012031
      7.73559     11.47870     13.78214         0.001059      0.000338      0.003562
      7.84639      8.49734      6.25018         0.000076      0.006095     -0.000736
     11.43123     13.76058     12.32744         0.000841      0.001906     -0.006324
      2.93340      9.89782     10.07432         0.018607     -0.005022     -0.003720
      1.78334      9.90320     10.14565        -0.011952     -0.002938     -0.009216
 -----------------------------------------------------------------------------------
    total drift:                               -0.001656     -0.001842      0.001699


--------------------------------------------------------------------------------------------------------



  FREE ENERGIE OF THE ION-ELECTRON SYSTEM (eV)
  ---------------------------------------------------
  free  energy   TOTEN  =      -185.97939599 eV

  energy  without entropy=     -185.77559543  energy(sigma->0) =     -185.87749571
 


--------------------------------------------------------------------------------------------------------


    POTLOK:  cpu time      0.2794: real time      0.2813


--------------------------------------------------------------------------------------------------------


 stress matrix after NEB project (eV)
     -0.81939      0.10799     -0.02379
      0.10799     -0.64609     -0.04133
     -0.02379     -0.04133     -0.61099
  FORCES: max atom, RMS     0.025826    0.009975
  FORCE total and by dimension    0.075308    0.022465
  Stress total and by dimension    1.220661    0.819392


--------------------------------------------------------------------------------------------------------


  
 reached required accuracy - stopping structural energy minimisation
     LOOP+:  cpu time    523.4574: real time    527.4459
    4ORBIT:  cpu time      0.0000: real time      0.0000

 total amount of memory used by VASP MPI-rank0   105908. kBytes
=======================================================================

   base      :      30000. kBytes
   nonl-proj :      24407. kBytes
   fftplans  :      13383. kBytes
   grid      :      28852. kBytes
   one-center:         62. kBytes
   wavefun   :       9204. kBytes
 
  
  
 General timing and accounting informations for this job:
 ========================================================
  
                  Total CPU time used (sec):      533.521
                            User time (sec):      478.948
                          System time (sec):       54.573
                         Elapsed time (sec):      540.503
  
                   Maximum memory used (kb):      345636.
                   Average memory used (kb):          N/A
  
                          Minor page faults:        69150
                          Major page faults:            0
                 Voluntary context switches:         4039
