 vasp.6.3.2 27Jun22 (build Dec 21 2022 11:15:52) complex                        
  
 executed on Aspire2aVTSTlibbeefS date 2024.05.29  17:54:50
 running  128 mpi-ranks, with    1 threads/rank
 distrk:  each k-point on  128 cores,    1 groups
 distr:  one band on NCORE=  16 cores,    8 groups


--------------------------------------------------------------------------------------------------------


 INCAR:
   ENCUT = 500.000000
   SIGMA = 0.100000
   EDIFF = 1.00e-05
   EDIFFG = -3.00e-02
   ALGO = Fast
   GGA = RPBE
   PREC = Accurate
   IBRION = 2
   ICHARG = 2
   ISIF = 2
   ISMEAR = 0
   ISPIN = 1
   ISTART = 0
   NELM = 90
   NELMIN = 5
   NPAR = 8
   NSIM = 8
   NSW = 500
   LCHARG = .FALSE.
   LPLANE = .FALSE.
   LWAVE = .FALSE.
   LREAL = .FALSE.

 POTCAR:    PAW_PBE Au 04Oct2007                  
 POTCAR:    PAW_PBE Cu 22Jun2005                  
 POTCAR:    PAW_PBE Ag 02Apr2005                  
 POTCAR:    PAW_PBE Pt 04Feb2005                  
 POTCAR:    PAW_PBE Pd 04Jan2005                  
 POTCAR:    PAW_PBE C 08Apr2002                   
 POTCAR:    PAW_PBE O 08Apr2002                   
 POTCAR:    PAW_PBE Au 04Oct2007                  
   VRHFIN =Au: s1d10                                                                                
   LEXCH  = PE                                                                                      
   EATOM  =   926.0867 eV,   68.0654 Ry                                                             
                                                                                                    
   TITEL  = PAW_PBE Au 04Oct2007                                                                    
   LULTRA =        F    use ultrasoft PP ?                                                          
   IUNSCR =        1    unscreen: 0-lin 1-nonlin 2-no                                               
   RPACOR =    2.330    partial core radius                                                         
   POMASS =  196.966; ZVAL   =   11.000    mass and valenz                                          
   RCORE  =    2.500    outmost cutoff radius                                                       
   RWIGS  =    2.840; RWIGS  =    1.503    wigner-seitz radius (au A)                               
   ENMAX  =  229.943; ENMIN  =  172.457 eV                                                          
   ICORE  =        3    local potential                                                             
   LCOR   =        T    correct aug charges                                                         
   LPAW   =        T    paw PP                                                                      
   EAUG   =  356.670                                                                                
   DEXC   =    0.000                                                                                
   RMAX   =    2.562    core radius for proj-oper                                                   
   RAUG   =    1.300    factor for augmentation sphere                                              
   RDEP   =    2.598    radius for radial grids                                                     
   RDEPT  =    2.193    core radius for aug-charge                                                  
                                                                                                    
   Atomic configuration                                                                             
   16 entries                                                                                       
     n  l   j            E        occ.                                                              
     1  0  0.50    -80748.5001   2.0000                                                             
     2  0  0.50    -14244.7466   2.0000                                                             
     2  1  1.50    -12310.9591   6.0000                                                             
     3  0  0.50     -3362.1768   2.0000                                                             
     3  1  1.50     -2801.5463   6.0000                                                             
     3  2  2.50     -2203.8206  10.0000                                                             
     4  0  0.50      -729.8168   2.0000                                                             
     4  1  1.50      -546.0527   6.0000                                                             
     4  2  2.50      -325.7302  10.0000                                                             
     4  3  3.50       -81.1472  14.0000                                                             
     5  0  0.50      -108.3201   2.0000                                                             
     5  1  1.50       -59.7479   6.0000                                                             
     5  2  2.50        -6.8783  10.0000                                                             
     6  0  0.50        -5.7602   1.0000                                                             
     6  1  1.50        -6.8029   0.0000                                                             
     5  3  2.50        -1.3606   0.0000                                                             
   Description                                                                                      
     l       E           TYP  RCUT    TYP  RCUT                                                     
     2     -6.8782861     23  2.500                                                                 
     2     -8.2388687     23  2.500                                                                 
     0     -5.7601759     23  2.500                                                                 
     0     -0.8493231     23  2.500                                                                 
     1     -2.7211652     23  2.500                                                                 
     1     27.2116520     23  2.500                                                                 
     3     -1.3605826     23  2.500                                                                 
  local pseudopotential read in
  partial core-charges read in
  partial kinetic energy density read in
  atomic valenz-charges read in
  non local Contribution for L=           2  read in
    real space projection operators read in
  non local Contribution for L=           2  read in
    real space projection operators read in
  non local Contribution for L=           0  read in
    real space projection operators read in
  non local Contribution for L=           0  read in
    real space projection operators read in
  non local Contribution for L=           1  read in
    real space projection operators read in
  non local Contribution for L=           1  read in
    real space projection operators read in
    PAW grid and wavefunctions read in
 
   number of l-projection  operators is LMAX  =           6
   number of lm-projection operators is LMMAX =          18
 
 POTCAR:    PAW_PBE Cu 22Jun2005                  
   VRHFIN =Cu: d10 p1                                                                               
   LEXCH  = PE                                                                                      
   EATOM  =  1390.9808 eV,  102.2342 Ry                                                             
                                                                                                    
   TITEL  = PAW_PBE Cu 22Jun2005                                                                    
   LULTRA =        F    use ultrasoft PP ?                                                          
   IUNSCR =        1    unscreen: 0-lin 1-nonlin 2-no                                               
   RPACOR =    2.000    partial core radius                                                         
   POMASS =   63.546; ZVAL   =   11.000    mass and valenz                                          
   RCORE  =    2.300    outmost cutoff radius                                                       
   RWIGS  =    2.200; RWIGS  =    1.164    wigner-seitz radius (au A)                               
   ENMAX  =  295.446; ENMIN  =  221.585 eV                                                          
   ICORE  =        3    local potential                                                             
   LCOR   =        T    correct aug charges                                                         
   LPAW   =        T    paw PP                                                                      
   EAUG   =  586.980                                                                                
   DEXC   =    0.000                                                                                
   RMAX   =    2.344    core radius for proj-oper                                                   
   RAUG   =    1.300    factor for augmentation sphere                                              
   RDEP   =    2.302    radius for radial grids                                                     
   RDEPT  =    1.771    core radius for aug-charge                                                  
                                                                                                    
   Atomic configuration                                                                             
    9 entries                                                                                       
     n  l   j            E        occ.                                                              
     1  0  0.50     -8850.2468   2.0000                                                             
     2  0  0.50     -1062.3498   2.0000                                                             
     2  1  1.50      -916.8226   6.0000                                                             
     3  0  0.50      -114.6929   2.0000                                                             
     3  1  1.50       -72.1325   6.0000                                                             
     3  2  2.50        -5.0394  10.0000                                                             
     4  0  0.50        -4.6097   1.0000                                                             
     4  1  0.50        -4.0817   0.0000                                                             
     4  3  2.50        -1.3606   0.0000                                                             
   Description                                                                                      
     l       E           TYP  RCUT    TYP  RCUT                                                     
     2     -5.0393973     23  2.200                                                                 
     2     10.8846608     23  2.200                                                                 
     0     -4.6097109     23  2.200                                                                 
     0      8.2520465     23  2.200                                                                 
     1     -2.7211652     23  2.200                                                                 
     1     21.7055443     23  2.200                                                                 
     3      2.7211652     23  2.300                                                                 
  local pseudopotential read in
  partial core-charges read in
  partial kinetic energy density read in
  atomic valenz-charges read in
  non local Contribution for L=           2  read in
    real space projection operators read in
  non local Contribution for L=           2  read in
    real space projection operators read in
  non local Contribution for L=           0  read in
    real space projection operators read in
  non local Contribution for L=           0  read in
    real space projection operators read in
  non local Contribution for L=           1  read in
    real space projection operators read in
  non local Contribution for L=           1  read in
    real space projection operators read in
    PAW grid and wavefunctions read in
 
   number of l-projection  operators is LMAX  =           6
   number of lm-projection operators is LMMAX =          18
 
 POTCAR:    PAW_PBE Ag 02Apr2005                  
   VRHFIN =Ag : s1 d10                                                                              
   LEXCH  = PE                                                                                      
   EATOM  =  1037.2675 eV,   76.2370 Ry                                                             
                                                                                                    
   TITEL  = PAW_PBE Ag 02Apr2005                                                                    
   LULTRA =        F    use ultrasoft PP ?                                                          
   IUNSCR =        1    unscreen: 0-lin 1-nonlin 2-no                                               
   RPACOR =    2.000    partial core radius                                                         
   POMASS =  107.868; ZVAL   =   11.000    mass and valenz                                          
   RCORE  =    2.500    outmost cutoff radius                                                       
   RWIGS  =    2.840; RWIGS  =    1.503    wigner-seitz radius (au A)                               
   ENMAX  =  249.844; ENMIN  =  187.383 eV                                                          
   ICORE  =        3    local potential                                                             
   LCOR   =        T    correct aug charges                                                         
   LPAW   =        T    paw PP                                                                      
   EAUG   =  412.496                                                                                
   DEXC   =    0.000                                                                                
   RMAX   =    2.560    core radius for proj-oper                                                   
   RAUG   =    1.300    factor for augmentation sphere                                              
   RDEP   =    2.576    radius for radial grids                                                     
   RDEPT  =    2.072    core radius for aug-charge                                                  
                                                                                                    
   Atomic configuration                                                                             
   12 entries                                                                                       
     n  l   j            E        occ.                                                              
     1  0  0.50    -25324.9161   2.0000                                                             
     2  0  0.50     -3728.5341   2.0000                                                             
     2  1  1.50     -3344.0404   6.0000                                                             
     3  0  0.50      -683.5581   2.0000                                                             
     3  1  1.50      -557.3225   6.0000                                                             
     3  2  2.50      -358.3853  10.0000                                                             
     4  0  0.50       -95.0341   2.0000                                                             
     4  1  1.50       -58.5511   6.0000                                                             
     4  2  2.50        -7.4440  10.0000                                                             
     5  0  0.50        -4.4045   1.0000                                                             
     5  1  0.50        -1.3606   0.0000                                                             
     4  3  2.50        -1.3606   0.0000                                                             
   Description                                                                                      
     l       E           TYP  RCUT    TYP  RCUT                                                     
     2     -7.4439781     23  2.400                                                                 
     2     -8.8045607     23  2.400                                                                 
     0     -4.4044681     23  2.400                                                                 
     0      1.9520038     23  2.400                                                                 
     1     -1.3605826     23  2.500                                                                 
     1     27.2116520     23  2.500                                                                 
     3     -4.0817478     23  2.400                                                                 
  local pseudopotential read in
  partial core-charges read in
  partial kinetic energy density read in
  atomic valenz-charges read in
  non local Contribution for L=           2  read in
    real space projection operators read in
  non local Contribution for L=           2  read in
    real space projection operators read in
  non local Contribution for L=           0  read in
    real space projection operators read in
  non local Contribution for L=           0  read in
    real space projection operators read in
  non local Contribution for L=           1  read in
    real space projection operators read in
  non local Contribution for L=           1  read in
    real space projection operators read in
    PAW grid and wavefunctions read in
 
   number of l-projection  operators is LMAX  =           6
   number of lm-projection operators is LMMAX =          18
 
 POTCAR:    PAW_PBE Pt 04Feb2005                  
   VRHFIN =Pt: s1d9                                                                                 
   LEXCH  = PE                                                                                      
   EATOM  =   729.1176 eV,   53.5886 Ry                                                             
                                                                                                    
   TITEL  = PAW_PBE Pt 04Feb2005                                                                    
   LULTRA =        F    use ultrasoft PP ?                                                          
   IUNSCR =        1    unscreen: 0-lin 1-nonlin 2-no                                               
   RPACOR =    2.330    partial core radius                                                         
   POMASS =  195.080; ZVAL   =   10.000    mass and valenz                                          
   RCORE  =    2.600    outmost cutoff radius                                                       
   RWIGS  =    2.750; RWIGS  =    1.455    wigner-seitz radius (au A)                               
   ENMAX  =  230.283; ENMIN  =  172.712 eV                                                          
   ICORE  =        3    local potential                                                             
   LCOR   =        T    correct aug charges                                                         
   LPAW   =        T    paw PP                                                                      
   EAUG   =  358.966                                                                                
   DEXC   =    0.000                                                                                
   RMAX   =    2.658    core radius for proj-oper                                                   
   RAUG   =    1.300    factor for augmentation sphere                                              
   RDEP   =    2.761    radius for radial grids                                                     
   RDEPT  =    2.203    core radius for aug-charge                                                  
                                                                                                    
   Atomic configuration                                                                             
   16 entries                                                                                       
     n  l   j            E        occ.                                                              
     1  0  0.50    -78401.1885   2.0000                                                             
     2  0  0.50    -13770.7750   2.0000                                                             
     2  1  1.50    -11931.0468   6.0000                                                             
     3  0  0.50     -3234.7234   2.0000                                                             
     3  1  1.50     -2699.2216   6.0000                                                             
     3  2  2.50     -2119.5714  10.0000                                                             
     4  0  0.50      -695.1528   2.0000                                                             
     4  1  1.50      -519.6034   6.0000                                                             
     4  2  2.50      -306.6786  10.0000                                                             
     4  3  3.50       -70.1041  14.0000                                                             
     5  0  0.50      -101.7747   2.0000                                                             
     5  1  1.50       -55.9873   6.0000                                                             
     5  2  2.50        -6.1423   9.0000                                                             
     6  0  0.50        -5.6573   1.0000                                                             
     6  1  1.50        -6.8029   0.0000                                                             
     5  3  2.50        -1.3606   0.0000                                                             
   Description                                                                                      
     l       E           TYP  RCUT    TYP  RCUT                                                     
     2     -6.1423404     23  2.500                                                                 
     2     -7.5029230     23  2.500                                                                 
     0     -5.6573207     23  2.500                                                                 
     0      0.7416693     23  2.500                                                                 
     1     -2.7211652     23  2.600                                                                 
     1     20.4087390     23  2.600                                                                 
     3     -1.3605826     23  2.500                                                                 
  local pseudopotential read in
  partial core-charges read in
  partial kinetic energy density read in
  atomic valenz-charges read in
  non local Contribution for L=           2  read in
    real space projection operators read in
  non local Contribution for L=           2  read in
    real space projection operators read in
  non local Contribution for L=           0  read in
    real space projection operators read in
  non local Contribution for L=           0  read in
    real space projection operators read in
  non local Contribution for L=           1  read in
    real space projection operators read in
  non local Contribution for L=           1  read in
    real space projection operators read in
    PAW grid and wavefunctions read in
 
   number of l-projection  operators is LMAX  =           6
   number of lm-projection operators is LMMAX =          18
 
 POTCAR:    PAW_PBE Pd 04Jan2005                  
   VRHFIN =Pd : s1 d9                                                                               
   LEXCH  = PE                                                                                      
   EATOM  =   809.7530 eV,   59.5152 Ry                                                             
                                                                                                    
   TITEL  = PAW_PBE Pd 04Jan2005                                                                    
   LULTRA =        F    use ultrasoft PP ?                                                          
   IUNSCR =        1    unscreen: 0-lin 1-nonlin 2-no                                               
   RPACOR =    2.000    partial core radius                                                         
   POMASS =  106.420; ZVAL   =   10.000    mass and valenz                                          
   RCORE  =    2.600    outmost cutoff radius                                                       
   RWIGS  =    2.710; RWIGS  =    1.434    wigner-seitz radius (au A)                               
   ENMAX  =  250.925; ENMIN  =  188.194 eV                                                          
   ICORE  =        3    local potential                                                             
   LCOR   =        T    correct aug charges                                                         
   LPAW   =        T    paw PP                                                                      
   EAUG   =  416.230                                                                                
   DEXC   =    0.000                                                                                
   RMAX   =    2.653    core radius for proj-oper                                                   
   RAUG   =    1.300    factor for augmentation sphere                                              
   RDEP   =    2.734    radius for radial grids                                                     
   RDEPT  =    2.103    core radius for aug-charge                                                  
                                                                                                    
   Atomic configuration                                                                             
   12 entries                                                                                       
     n  l   j            E        occ.                                                              
     1  0  0.50    -24164.6631   2.0000                                                             
     2  0  0.50     -3530.9218   2.0000                                                             
     2  1  1.50     -3165.6822   6.0000                                                             
     3  0  0.50      -639.4577   2.0000                                                             
     3  1  1.50      -519.4532   6.0000                                                             
     3  2  2.50      -328.9757  10.0000                                                             
     4  0  0.50       -88.7014   2.0000                                                             
     4  1  1.50       -54.4540   6.0000                                                             
     4  2  2.50        -6.6878   9.0000                                                             
     5  0  0.50        -4.3543   1.0000                                                             
     5  1  0.50        -1.3606   0.0000                                                             
     4  3  2.50        -1.3606   0.0000                                                             
   Description                                                                                      
     l       E           TYP  RCUT    TYP  RCUT                                                     
     2     -6.6878251     23  2.400                                                                 
     2     -8.0484077     23  2.400                                                                 
     0     -4.3542939     23  2.400                                                                 
     0      4.3406793     23  2.400                                                                 
     1     -4.0817478     23  2.600                                                                 
     1     15.8380318     23  2.600                                                                 
     3     -4.0817478     23  2.400                                                                 
  local pseudopotential read in
  partial core-charges read in
  partial kinetic energy density read in
  atomic valenz-charges read in
  non local Contribution for L=           2  read in
    real space projection operators read in
  non local Contribution for L=           2  read in
    real space projection operators read in
  non local Contribution for L=           0  read in
    real space projection operators read in
  non local Contribution for L=           0  read in
    real space projection operators read in
  non local Contribution for L=           1  read in
    real space projection operators read in
  non local Contribution for L=           1  read in
    real space projection operators read in
    PAW grid and wavefunctions read in
 
   number of l-projection  operators is LMAX  =           6
   number of lm-projection operators is LMMAX =          18
 
 POTCAR:    PAW_PBE C 08Apr2002                   
   VRHFIN =C: s2p2                                                                                  
   LEXCH  = PE                                                                                      
   EATOM  =   147.1560 eV,   10.8157 Ry                                                             
                                                                                                    
   TITEL  = PAW_PBE C 08Apr2002                                                                     
   LULTRA =        F    use ultrasoft PP ?                                                          
   IUNSCR =        1    unscreen: 0-lin 1-nonlin 2-no                                               
   RPACOR =    1.200    partial core radius                                                         
   POMASS =   12.011; ZVAL   =    4.000    mass and valenz                                          
   RCORE  =    1.500    outmost cutoff radius                                                       
   RWIGS  =    1.630; RWIGS  =    0.863    wigner-seitz radius (au A)                               
   ENMAX  =  400.000; ENMIN  =  300.000 eV                                                          
   ICORE  =        2    local potential                                                             
   LCOR   =        T    correct aug charges                                                         
   LPAW   =        T    paw PP                                                                      
   EAUG   =  644.873                                                                                
   DEXC   =    0.000                                                                                
   RMAX   =    1.529    core radius for proj-oper                                                   
   RAUG   =    1.300    factor for augmentation sphere                                              
   RDEP   =    1.501    radius for radial grids                                                     
   RDEPT  =    1.300    core radius for aug-charge                                                  
                                                                                                    
   Atomic configuration                                                                             
    4 entries                                                                                       
     n  l   j            E        occ.                                                              
     1  0  0.50      -273.3789   2.0000                                                             
     2  0  0.50       -13.7508   2.0000                                                             
     2  1  0.50        -5.2854   2.0000                                                             
     3  2  1.50        -5.4423   0.0000                                                             
   Description                                                                                      
     l       E           TYP  RCUT    TYP  RCUT                                                     
     0    -13.7508458     23  1.200                                                                 
     0     -8.2022199     23  1.200                                                                 
     1     -5.2854383     23  1.500                                                                 
     1     34.0145650     23  1.500                                                                 
     2     -5.4423304      7  1.500                                                                 
  local pseudopotential read in
  partial core-charges read in
  partial kinetic energy density read in
  atomic valenz-charges read in
  non local Contribution for L=           0  read in
    real space projection operators read in
  non local Contribution for L=           0  read in
    real space projection operators read in
  non local Contribution for L=           1  read in
    real space projection operators read in
  non local Contribution for L=           1  read in
    real space projection operators read in
    PAW grid and wavefunctions read in
 
   number of l-projection  operators is LMAX  =           4
   number of lm-projection operators is LMMAX =           8
 
 POTCAR:    PAW_PBE O 08Apr2002                   
   VRHFIN =O: s2p4                                                                                  
   LEXCH  = PE                                                                                      
   EATOM  =   432.3788 eV,   31.7789 Ry                                                             
                                                                                                    
   TITEL  = PAW_PBE O 08Apr2002                                                                     
   LULTRA =        F    use ultrasoft PP ?                                                          
   IUNSCR =        1    unscreen: 0-lin 1-nonlin 2-no                                               
   RPACOR =    1.200    partial core radius                                                         
   POMASS =   16.000; ZVAL   =    6.000    mass and valenz                                          
   RCORE  =    1.520    outmost cutoff radius                                                       
   RWIGS  =    1.550; RWIGS  =    0.820    wigner-seitz radius (au A)                               
   ENMAX  =  400.000; ENMIN  =  300.000 eV                                                          
   ICORE  =        2    local potential                                                             
   LCOR   =        T    correct aug charges                                                         
   LPAW   =        T    paw PP                                                                      
   EAUG   =  605.392                                                                                
   DEXC   =    0.000                                                                                
   RMAX   =    1.553    core radius for proj-oper                                                   
   RAUG   =    1.300    factor for augmentation sphere                                              
   RDEP   =    1.550    radius for radial grids                                                     
   RDEPT  =    1.329    core radius for aug-charge                                                  
                                                                                                    
   Atomic configuration                                                                             
    4 entries                                                                                       
     n  l   j            E        occ.                                                              
     1  0  0.50      -514.6923   2.0000                                                             
     2  0  0.50       -23.9615   2.0000                                                             
     2  1  0.50        -9.0305   4.0000                                                             
     3  2  1.50        -9.5241   0.0000                                                             
   Description                                                                                      
     l       E           TYP  RCUT    TYP  RCUT                                                     
     0    -23.9615318     23  1.200                                                                 
     0     -9.5240782     23  1.200                                                                 
     1     -9.0304911     23  1.520                                                                 
     1      8.1634956     23  1.520                                                                 
     2     -9.5240782      7  1.500                                                                 
  local pseudopotential read in
  partial core-charges read in
  partial kinetic energy density read in
  kinetic energy density of atom read in
  atomic valenz-charges read in
  non local Contribution for L=           0  read in
    real space projection operators read in
  non local Contribution for L=           0  read in
    real space projection operators read in
  non local Contribution for L=           1  read in
    real space projection operators read in
  non local Contribution for L=           1  read in
    real space projection operators read in
    PAW grid and wavefunctions read in
 
   number of l-projection  operators is LMAX  =           4
   number of lm-projection operators is LMMAX =           8
 
 -----------------------------------------------------------------------------
|                                                                             |
|               ----> ADVICE to this user running VASP <----                  |
|                                                                             |
|     You have a (more or less) 'large supercell' and for larger cells it     |
|     might be more efficient to use real-space projection operators.         |
|     Therefore, try LREAL= Auto in the INCAR file.                           |
|     Mind: For very accurate calculation, you might also keep the            |
|     reciprocal projection scheme (i.e. LREAL=.FALSE.).                      |
|                                                                             |
 -----------------------------------------------------------------------------

 -----------------------------------------------------------------------------
|                                                                             |
|               ----> ADVICE to this user running VASP <----                  |
|                                                                             |
|     You enforced a specific xc type in the INCAR file but a different       |
|     type was found in the POTCAR file.                                      |
|     I HOPE YOU KNOW WHAT YOU ARE DOING!                                     |
|                                                                             |
 -----------------------------------------------------------------------------

  PAW_PBE Au 04Oct2007                  :
 energy of atom  1       EATOM= -926.0867
 kinetic energy error for atom=    0.0042 (will be added to EATOM!!)
  PAW_PBE Cu 22Jun2005                  :
 energy of atom  2       EATOM=-1390.9808
 kinetic energy error for atom=    0.0043 (will be added to EATOM!!)
  PAW_PBE Ag 02Apr2005                  :
 energy of atom  3       EATOM=-1037.2675
 kinetic energy error for atom=    0.0052 (will be added to EATOM!!)
  PAW_PBE Pt 04Feb2005                  :
 energy of atom  4       EATOM= -729.1176
 kinetic energy error for atom=    0.0039 (will be added to EATOM!!)
  PAW_PBE Pd 04Jan2005                  :
 energy of atom  5       EATOM= -809.7530
 kinetic energy error for atom=    0.0049 (will be added to EATOM!!)
  PAW_PBE C 08Apr2002                   :
 energy of atom  6       EATOM= -147.1560
 kinetic energy error for atom=    0.0076 (will be added to EATOM!!)
  PAW_PBE O 08Apr2002                   :
 energy of atom  7       EATOM= -432.3788
 kinetic energy error for atom=    0.0224 (will be added to EATOM!!)
 
 
 POSCAR: Au Cu Ag Pt Pd  C  O
  positions in cartesian coordinates
  No initial velocities read in
 exchange correlation table for  LEXCH =        9
   RHO(1)=    0.500       N(1)  =     2000
   RHO(2)=  100.500       N(2)  =     4000

 VTST: version 4.2, (08/11/21)

 CHAIN: initializing optimizer
 
 OPT: Using VASP Conjugate-Gradient optimizer
 CHAIN: Read ICHAIN            0
 
 POSCAR: Au Cu Ag Pt Pd  C  O
  positions in cartesian coordinates
  No initial velocities read in
 


--------------------------------------------------------------------------------------------------------


 ion  position               nearest neighbor table
   1  0.614  0.503  0.571-  15 2.63  47 2.71  21 2.73  50 2.73  35 2.77   3 2.80   7 2.81  12 2.83
                            28 2.86  36 2.88  34 2.89  23 2.89
   2  0.421  0.385  0.498-  17 2.54  22 2.69  23 2.73  45 2.80  39 2.82  30 2.83  31 2.84  33 2.86
                            12 2.87  24 2.91  13 2.94   3 2.97
   3  0.569  0.391  0.500-  21 2.65  20 2.66  23 2.70  13 2.73  39 2.75  44 2.75  12 2.75   1 2.80
                             6 2.81  34 2.84  11 2.88   2 2.97
   4  0.279  0.494  0.320-  56 1.97  54 2.66  19 2.73  24 2.83  30 3.13  29 3.37
   5  0.359  0.735  0.494-  46 2.71  26 2.83  29 2.86  43 2.90  10 2.99   9 3.06
   6  0.647  0.274  0.494-  20 2.73  21 2.76  44 2.79   3 2.81  39 2.87  11 2.94
   7  0.623  0.568  0.695-   1 2.81  48 2.81  41 2.85  50 2.88  28 2.91  47 3.00  55 3.06  36 3.07

   8  0.698  0.617  0.434-  38 2.77  37 2.77  34 2.84  28 2.94  15 2.94  35 2.94  51 2.99  32 3.13

   9  0.307  0.617  0.576-  16 2.79  45 2.81  46 2.84  53 2.89  25 2.91  10 2.97  29 3.05   5 3.06

  10  0.425  0.695  0.621-  36 2.82  46 2.87  53 2.90  55 2.92  48 2.92   9 2.97   5 2.99  26 3.03

  11  0.573  0.308  0.617-  22 2.73  40 2.74  39 2.81  21 2.83  50 2.83   3 2.88   6 2.94  12 2.95

  12  0.497  0.434  0.609-  22 2.57  40 2.58  41 2.60  23 2.66   3 2.75  52 2.75  45 2.76  36 2.77
                             1 2.83  50 2.85   2 2.87  11 2.95
  13  0.504  0.432  0.387-  42 2.57  23 2.59  49 2.61  54 2.64  44 2.67  34 2.69   3 2.73  27 2.90
                             2 2.94  33 3.04  24 3.14
  14  0.502  0.573  0.388-  18 2.42  23 2.58  43 2.60  19 2.60  34 2.62  49 2.66  32 2.76  35 2.78
                            51 2.78  46 2.84  24 3.11
  15  0.724  0.487  0.499-  37 2.57  21 2.62   1 2.63  20 2.67  47 2.70  34 2.75   8 2.94  28 3.14

  16  0.282  0.501  0.649-  45 2.52  53 2.64  52 2.65  25 2.78   9 2.79  31 2.88
  17  0.377  0.267  0.514-   2 2.54  39 2.55  22 2.58  33 2.90  31 2.91
  18  0.500  0.632  0.282-  14 2.42  19 2.57  43 2.60  49 2.61  51 2.72  32 2.73
  19  0.395  0.566  0.316-  18 2.57  14 2.60  43 2.63  24 2.63  49 2.65   4 2.73  54 2.80  29 3.06

  20  0.678  0.387  0.424-  37 2.61   3 2.66  15 2.67   6 2.73  27 2.74  44 2.74  34 2.77
  21  0.682  0.384  0.569-  15 2.62  47 2.64   3 2.65  50 2.73   1 2.73   6 2.76  11 2.83
  22  0.437  0.320  0.615-  12 2.57  17 2.58  40 2.61   2 2.69  11 2.73  39 2.82  52 2.82  31 2.88

  23  0.492  0.502  0.495-  14 2.58  13 2.59  12 2.66  46 2.67  45 2.68   3 2.70  36 2.71  34 2.71
                             2 2.73  35 2.74  24 2.77   1 2.89
  24  0.370  0.502  0.428-  19 2.63  54 2.75  23 2.77  29 2.79   4 2.83  30 2.85  25 2.86  45 2.86
                             2 2.91  46 2.95  14 3.11  13 3.14
  25  0.255  0.498  0.512-  45 2.78  16 2.78  24 2.86   9 2.91  31 3.03  30 3.19  29 3.23
  26  0.500  0.743  0.499-   5 2.83  38 2.86  46 2.90  35 2.90  32 2.93  55 2.95  10 3.03  43 3.12

  27  0.624  0.427  0.305-  20 2.74  42 2.78  37 2.81  49 2.89  13 2.90  34 2.92  51 2.95  44 2.99

  28  0.697  0.619  0.581-  38 2.83   1 2.86   7 2.91  47 2.94   8 2.94  55 2.97  35 3.00  15 3.14

  29  0.302  0.624  0.424-  24 2.79  43 2.84   5 2.86  46 2.91   9 3.05  19 3.06  25 3.23   4 3.37

  30  0.303  0.377  0.420-   2 2.83  24 2.85  54 2.94  33 2.98   4 3.13  25 3.19  31 3.26
  31  0.308  0.375  0.583-  52 2.84   2 2.84  45 2.86  16 2.88  22 2.88  17 2.91  25 3.03  30 3.26

  32  0.572  0.692  0.381-  18 2.73  14 2.76  38 2.85  51 2.88  35 2.89  26 2.93  43 2.94   8 3.13

  33  0.426  0.301  0.382-  42 2.84   2 2.86  44 2.87  39 2.90  17 2.90  54 2.91  30 2.98  13 3.04

  34  0.609  0.507  0.427-  37 2.61  14 2.62  51 2.65  13 2.69  23 2.71  15 2.75  20 2.77  35 2.77
                             3 2.84   8 2.84   1 2.89  27 2.92
  35  0.568  0.615  0.503-  38 2.61  55 2.71  36 2.72  23 2.74   1 2.77  34 2.77  14 2.78  46 2.84
                            32 2.89  26 2.90   8 2.94  28 3.00
  36  0.495  0.573  0.610-  41 2.69  48 2.69  53 2.70  23 2.71  35 2.72  46 2.75  12 2.77  55 2.78
                            10 2.82  45 2.84   1 2.88   7 3.07
  37  0.727  0.496  0.371-  15 2.57  20 2.61  34 2.61   8 2.77  27 2.81  51 2.89
  38  0.642  0.723  0.502-  35 2.61   8 2.77  55 2.78  28 2.83  32 2.85  26 2.86
  39  0.503  0.271  0.501-  17 2.55   3 2.75  44 2.79  11 2.81  22 2.82   2 2.82   6 2.87  33 2.90

  40  0.502  0.367  0.719-  12 2.58  22 2.61  41 2.65  50 2.70  52 2.71  11 2.74
  41  0.501  0.499  0.722-  12 2.60  40 2.65  36 2.69  48 2.73  52 2.78  53 2.83   7 2.85  50 2.89

  42  0.505  0.360  0.280-  13 2.57  44 2.63  54 2.69  27 2.78  49 2.82  33 2.84
  43  0.426  0.678  0.378-  14 2.60  18 2.60  19 2.63  46 2.70  29 2.84   5 2.90  32 2.94  26 3.12

  44  0.569  0.315  0.386-  42 2.63  13 2.67  20 2.74   3 2.75   6 2.79  39 2.79  33 2.87  27 2.99

  45  0.381  0.498  0.571-  16 2.52  23 2.68  52 2.75  12 2.76  25 2.78   2 2.80  53 2.80   9 2.81
                            36 2.84  31 2.86  24 2.86  46 2.94
  46  0.427  0.618  0.500-  23 2.67  43 2.70   5 2.71  36 2.75  35 2.84   9 2.84  14 2.84  10 2.87
                            26 2.90  29 2.91  45 2.94  24 2.95
  47  0.733  0.487  0.634-  21 2.64  15 2.70   1 2.71  50 2.79  28 2.94   7 3.00
  48  0.504  0.635  0.729-  36 2.69  41 2.73  53 2.80   7 2.81  55 2.83  10 2.92
  49  0.503  0.501  0.276-  13 2.61  18 2.61  19 2.65  14 2.66  54 2.76  42 2.82  51 2.86  27 2.89

  50  0.619  0.425  0.683-  40 2.70  21 2.73   1 2.73  47 2.79  11 2.83  12 2.85   7 2.88  41 2.89

  51  0.620  0.575  0.314-  34 2.65  18 2.72  14 2.78  49 2.86  32 2.88  37 2.89  27 2.95   8 2.99

  52  0.385  0.429  0.689-  16 2.65  40 2.71  45 2.75  12 2.75  41 2.78  22 2.82  31 2.84  53 2.88

  53  0.385  0.573  0.689-  16 2.64  36 2.70  45 2.80  48 2.80  41 2.83  52 2.88   9 2.89  10 2.90

  54  0.393  0.426  0.315-  13 2.64   4 2.66  42 2.69  24 2.75  49 2.76  19 2.80  33 2.91  30 2.94

  55  0.571  0.689  0.616-  35 2.71  38 2.78  36 2.78  48 2.83  10 2.92  26 2.95  28 2.97   7 3.06

  56  0.190  0.507  0.279-  57 1.16   4 1.97
  57  0.146  0.506  0.242-  56 1.16
 
  LATTYP: Found a simple cubic cell.
 ALAT       =    20.0000000000
  
  Lattice vectors:
  
 A1 = (  20.0000000000,   0.0000000000,   0.0000000000)
 A2 = (   0.0000000000,  20.0000000000,   0.0000000000)
 A3 = (   0.0000000000,   0.0000000000,  20.0000000000)


Analysis of symmetry for initial positions (statically):
=====================================================================
 Subroutine PRICEL returns:
 Original cell was already a primitive cell.
 

 Routine SETGRP: Setting up the symmetry group for a 
 simple cubic supercell.


 Subroutine GETGRP returns: Found  1 space group operations
 (whereof  1 operations were pure point group operations)
 out of a pool of 48 trial point group operations.


The static configuration has the point symmetry C_1 .


Analysis of symmetry for dynamics (positions and initial velocities):
=====================================================================
 Subroutine PRICEL returns:
 Original cell was already a primitive cell.
 

 Routine SETGRP: Setting up the symmetry group for a 
 simple cubic supercell.


 Subroutine GETGRP returns: Found  1 space group operations
 (whereof  1 operations were pure point group operations)
 out of a pool of 48 trial point group operations.


The dynamic configuration has the point symmetry C_1 .


 Subroutine INISYM returns: Found  1 space group operations
 (whereof  1 operations are pure point group operations),
 and found     1 'primitive' translations


----------------------------------------------------------------------------------------

                                     Primitive cell                                     

  volume of cell :    8000.0000

  direct lattice vectors                    reciprocal lattice vectors
    20.000000000  0.000000000  0.000000000     0.050000000  0.000000000  0.000000000
     0.000000000 20.000000000  0.000000000     0.000000000  0.050000000  0.000000000
     0.000000000  0.000000000 20.000000000     0.000000000  0.000000000  0.050000000

  length of vectors
    20.000000000 20.000000000 20.000000000     0.050000000  0.050000000  0.050000000

  position of ions in fractional coordinates (direct lattice)
     0.614496202  0.503014407  0.570972937
     0.420818785  0.385066627  0.498090494
     0.569211365  0.391377105  0.499731835
     0.279194024  0.493961018  0.319596729
     0.358884122  0.735369929  0.493586550
     0.646705579  0.274412019  0.493872680
     0.622801645  0.568225620  0.694893763
     0.698163181  0.616554245  0.433814171
     0.306924646  0.617436971  0.575953919
     0.425339525  0.694935641  0.621163661
     0.573116529  0.308043171  0.616885997
     0.497094813  0.434171304  0.608965472
     0.504361861  0.431732571  0.386746812
     0.502467207  0.573305477  0.388260530
     0.723594889  0.487476479  0.499399464
     0.282225027  0.501005562  0.648622119
     0.376909964  0.267012843  0.514336984
     0.500297602  0.631706392  0.282286204
     0.394586650  0.566487705  0.316039554
     0.678277667  0.387086659  0.423630919
     0.682106860  0.384491145  0.569068873
     0.437336180  0.320443068  0.614951068
     0.491514377  0.501773048  0.494820370
     0.369984437  0.502077540  0.427971421
     0.254566629  0.497733314  0.512291957
     0.500290624  0.742936217  0.498701455
     0.623824957  0.427488990  0.304789256
     0.696999847  0.619382141  0.580645609
     0.302343452  0.624172760  0.423905164
     0.302949029  0.376599201  0.420283269
     0.307916388  0.375281021  0.583306108
     0.571853726  0.692133866  0.381341064
     0.425933599  0.301435858  0.382199690
     0.608645861  0.506500901  0.426659130
     0.568431457  0.614811643  0.503410567
     0.494961378  0.572758718  0.609904216
     0.726606805  0.496391295  0.371214569
     0.641726273  0.722961892  0.501922736
     0.503398647  0.270701513  0.500909101
     0.502059152  0.366526428  0.718566052
     0.501089688  0.498804461  0.721963693
     0.504685047  0.360171742  0.279943334
     0.425799036  0.677752064  0.378396661
     0.568574132  0.314687124  0.385565613
     0.380797869  0.497755945  0.570598835
     0.426648509  0.618152308  0.499672103
     0.733486387  0.487489908  0.633910902
     0.504161079  0.635351950  0.728663124
     0.502758243  0.501259502  0.276401258
     0.618700465  0.424587245  0.682860247
     0.619814881  0.574515842  0.313538919
     0.385393634  0.428605875  0.689379573
     0.385247029  0.572850212  0.688804556
     0.393443528  0.426479265  0.315448412
     0.570997051  0.689224291  0.616471491
     0.190471297  0.506956588  0.278786484
     0.145774357  0.505684823  0.241775095

  ion indices of the primitive-cell ions
   primitive index   ion index
                 1           1
                 2           2
                 3           3
                 4           4
                 5           5
                 6           6
                 7           7
                 8           8
                 9           9
                10          10
                11          11
                12          12
                13          13
                14          14
                15          15
                16          16
                17          17
                18          18
                19          19
                20          20
                21          21
                22          22
                23          23
                24          24
                25          25
                26          26
                27          27
                28          28
                29          29
                30          30
                31          31
                32          32
                33          33
                34          34
                35          35
                36          36
                37          37
                38          38
                39          39
                40          40
                41          41
                42          42
                43          43
                44          44
                45          45
                46          46
                47          47
                48          48
                49          49
                50          50
                51          51
                52          52
                53          53
                54          54
                55          55
                56          56
                57          57

----------------------------------------------------------------------------------------

 
 
 KPOINTS: KPOINTS created by Atomic Simulation Env

Automatic generation of k-mesh.
 Grid dimensions read from file:
 generate k-points for:    1    1    1

 Generating k-lattice:

  Cartesian coordinates                     Fractional coordinates (reciprocal lattice)
     0.050000000  0.000000000  0.000000000     1.000000000  0.000000000  0.000000000
     0.000000000  0.050000000  0.000000000     0.000000000  1.000000000  0.000000000
     0.000000000  0.000000000  0.050000000     0.000000000  0.000000000  1.000000000

  Length of vectors
     0.050000000  0.050000000  0.050000000

  Shift w.r.t. Gamma in fractional coordinates (k-lattice)
     0.000000000  0.000000000  0.000000000

 
 Subroutine IBZKPT returns following result:
 ===========================================
 
 Found      1 irreducible k-points:
 
 Following reciprocal coordinates:
            Coordinates               Weight
  0.000000  0.000000  0.000000      1.000000
 
 Following cartesian coordinates:
            Coordinates               Weight
  0.000000  0.000000  0.000000      1.000000
 


--------------------------------------------------------------------------------------------------------




 Dimension of arrays:
   k-points           NKPTS =      1   k-points in BZ     NKDIM =      1   number of bands    NBANDS=    360
   number of dos      NEDOS =    301   number of ions     NIONS =     57
   non local maximal  LDIM  =      6   non local SUM 2l+1 LMDIM =     18
   total plane-waves  NPLWV = ******
   max r-space proj   IRMAX =      1   max aug-charges    IRDMAX=  25995
   dimension x,y,z NGX =   150 NGY =  150 NGZ =  150
   dimension x,y,z NGXF=   300 NGYF=  300 NGZF=  300
   support grid    NGXF=   300 NGYF=  300 NGZF=  300
   ions per type =              11  11  11  11  11   1   1
   NGX,Y,Z   is equivalent  to a cutoff of  12.47, 12.47, 12.47 a.u.
   NGXF,Y,Z  is equivalent  to a cutoff of  24.94, 24.94, 24.94 a.u.

 SYSTEM =  unknown system                          
 POSCAR =  Au Cu Ag Pt Pd  C  O                    

 Startparameter for this run:
   NWRITE =      2    write-flag & timer
   PREC   = accura    normal or accurate (medium, high low for compatibility)
   ISTART =      0    job   : 0-new  1-cont  2-samecut
   ICHARG =      2    charge: 1-file 2-atom 10-const
   ISPIN  =      1    spin polarized calculation?
   LNONCOLLINEAR =      F non collinear calculations
   LSORBIT =      F    spin-orbit coupling
   INIWAV =      1    electr: 0-lowe 1-rand  2-diag
   LASPH  =      F    aspherical Exc in radial PAW
 Electronic Relaxation 1
   ENCUT  =  500.0 eV  36.75 Ry    6.06 a.u.  36.46 36.46 36.46*2*pi/ulx,y,z
   ENINI  =  500.0     initial cutoff
   ENAUG  =  644.9 eV  augmentation charge cutoff
   NELM   =     90;   NELMIN=  5; NELMDL= -5     # of ELM steps 
   EDIFF  = 0.1E-04   stopping-criterion for ELM
   LREAL  =      F    real-space projection
   NLSPLINE    = F    spline interpolate recip. space projectors
   LCOMPAT=      F    compatible to vasp.4.4
   GGA_COMPAT  = T    GGA compatible to vasp.4.4-vasp.4.6
   LMAXPAW     = -100 max onsite density
   LMAXMIX     =    2 max onsite mixed and CHGCAR
   VOSKOWN=      0    Vosko Wilk Nusair interpolation
   ROPT   =    0.00000   0.00000   0.00000   0.00000
   ROPT   =    0.00000   0.00000   0.00000
 Ionic relaxation
   EDIFFG = -.3E-01   stopping-criterion for IOM
   NSW    =    500    number of steps for IOM
   NBLOCK =      1;   KBLOCK =    500    inner block; outer block 
   IBRION =      2    ionic relax: 0-MD 1-quasi-New 2-CG
   NFREE  =      1    steps in history (QN), initial steepest desc. (CG)
   ISIF   =      2    stress and relaxation
   IWAVPR =     11    prediction:  0-non 1-charg 2-wave 3-comb
   ISYM   =      2    0-nonsym 1-usesym 2-fastsym
   LCORR  =      T    Harris-Foulkes like correction to forces

   POTIM  = 0.5000    time-step for ionic-motion
   TEIN   =    0.0    initial temperature
   TEBEG  =    0.0;   TEEND  =   0.0 temperature during run
   SMASS  =  -3.00    Nose mass-parameter (am)
   estimated Nose-frequenzy (Omega)   =  0.10E-29 period in steps = 0.13E+47 mass=  -0.914E-26a.u.
   SCALEE = 1.0000    scale energy and forces
   NPACO  =    256;   APACO  = 10.0  distance and # of slots for P.C.
   PSTRESS=    0.0 pullay stress

  Mass of Ions in am
   POMASS = 196.97 63.55107.87195.08106.42 12.01 16.00
  Ionic Valenz
   ZVAL   =  11.00 11.00 11.00 10.00 10.00  4.00  6.00
  Atomic Wigner-Seitz radii
   RWIGS  =  -1.00 -1.00 -1.00 -1.00 -1.00 -1.00 -1.00
  virtual crystal weights 
   VCA    =   1.00  1.00  1.00  1.00  1.00  1.00  1.00
   NELECT =     593.0000    total number of electrons
   NUPDOWN=      -1.0000    fix difference up-down

 DOS related values:
   EMIN   =  10.00;   EMAX   =-10.00  energy-range for DOS
   EFERMI =   0.00
   ISMEAR =     0;   SIGMA  =   0.10  broadening in eV -4-tet -1-fermi 0-gaus

 Electronic relaxation 2 (details)
   IALGO  =     68    algorithm
   LDIAG  =      T    sub-space diagonalisation (order eigenvalues)
   LSUBROT=      F    optimize rotation matrix (better conditioning)
   TURBO    =      0    0=normal 1=particle mesh
   IRESTART =      0    0=no restart 2=restart with 2 vectors
   NREBOOT  =      0    no. of reboots
   NMIN     =      0    reboot dimension
   EREF     =   0.00    reference energy to select bands
   IMIX   =      4    mixing-type and parameters
     AMIX     =   0.40;   BMIX     =  1.00
     AMIX_MAG =   1.60;   BMIX_MAG =  1.00
     AMIN     =   0.10
     WC   =   100.;   INIMIX=   1;  MIXPRE=   1;  MAXMIX= -45

 Intra band minimization:
   WEIMIN = 0.0010     energy-eigenvalue tresh-hold
   EBREAK =  0.69E-08  absolut break condition
   DEPER  =   0.30     relativ break condition  

   TIME   =   0.40     timestep for ELM

  volume/ion in A,a.u.               =     140.35       947.13
  Fermi-wavevector in a.u.,A,eV,Ry     =   0.687696  1.299557  6.434543  0.472926
  Thomas-Fermi vector in A             =   1.768284
 
 Write flags
   LWAVE        =      F    write WAVECAR
   LDOWNSAMPLE  =      F    k-point downsampling of WAVECAR
   LCHARG       =      F    write CHGCAR
   LVTOT        =      F    write LOCPOT, total local potential
   LVHAR        =      F    write LOCPOT, Hartree potential only
   LELF         =      F    write electronic localiz. function (ELF)
   LORBIT       =      0    0 simple, 1 ext, 2 COOP (PROOUT), +10 PAW based schemes


 Dipole corrections
   LMONO  =      F    monopole corrections only (constant potential shift)
   LDIPOL =      F    correct potential (dipole corrections)
   IDIPOL =      0    1-x, 2-y, 3-z, 4-all directions 
   EPSILON=  1.0000000 bulk dielectric constant

 Exchange correlation treatment:
   GGA     =    RP    GGA type
   LEXCH   =     9    internal setting for exchange type
   LIBXC   =     F    Libxc                    
   VOSKOWN =     0    Vosko Wilk Nusair interpolation
   LHFCALC =     F    Hartree Fock is set to
   LHFONE  =     F    Hartree Fock one center treatment
   AEXX    =    0.0000 exact exchange contribution

 Linear response parameters
   LEPSILON=     F    determine dielectric tensor
   LRPA    =     F    only Hartree local field effects (RPA)
   LNABLA  =     F    use nabla operator in PAW spheres
   LVEL    =     F    velocity operator in full k-point grid
   CSHIFT  =0.1000    complex shift for real part using Kramers Kronig
   OMEGAMAX=  -1.0    maximum frequency
   DEG_THRESHOLD= 0.2000000E-02 threshold for treating states as degnerate
   RTIME   =   -0.100 relaxation time in fs
  (WPLASMAI=    0.000 imaginary part of plasma frequency in eV, 0.658/RTIME)
   DFIELD  = 0.0000000 0.0000000 0.0000000 field for delta impulse in time
 
  Optional k-point grid parameters
   LKPOINTS_OPT  =     F    use optional k-point grid
   KPOINTS_OPT_MODE=     1    mode for optional k-point grid
 
 Orbital magnetization related:
   ORBITALMAG=     F  switch on orbital magnetization
   LCHIMAG   =     F  perturbation theory with respect to B field
   DQ        =  0.001000  dq finite difference perturbation B field
   LLRAUG    =     F  two centre corrections for induced B field



--------------------------------------------------------------------------------------------------------


 conjugate gradient relaxation of ions
 charge density and potential will be updated during run
 non-spin polarized calculation
 RMM-DIIS sequential band-by-band and
  variant of blocked Davidson during initial phase
 perform sub-space diagonalisation
    before iterative eigenvector-optimisation
 modified Broyden-mixing scheme, WC =      100.0
 initial mixing is a Kerker type mixing with AMIX =  0.4000 and BMIX =      1.0000
 Hartree-type preconditioning will be used
 using additional bands           63
 reciprocal scheme for non local part
 use partial core corrections
 calculate Harris-corrections to forces 
   (improved forces if not selfconsistent)
 use gradient corrections 
 use of overlap-Matrix (Vanderbilt PP)
 Gauss-broadening in eV      SIGMA  =   0.10


--------------------------------------------------------------------------------------------------------


  energy-cutoff  :      500.00
  volume of cell :     8000.00
      direct lattice vectors                 reciprocal lattice vectors
    20.000000000  0.000000000  0.000000000     0.050000000  0.000000000  0.000000000
     0.000000000 20.000000000  0.000000000     0.000000000  0.050000000  0.000000000
     0.000000000  0.000000000 20.000000000     0.000000000  0.000000000  0.050000000

  length of vectors
    20.000000000 20.000000000 20.000000000     0.050000000  0.050000000  0.050000000


 
 k-points in units of 2pi/SCALE and weight: KPOINTS created by Atomic Simulation Env
   0.00000000  0.00000000  0.00000000       1.000
 
 k-points in reciprocal lattice and weights: KPOINTS created by Atomic Simulation Env
   0.00000000  0.00000000  0.00000000       1.000
 
 position of ions in fractional coordinates (direct lattice) 
   0.61449620  0.50301441  0.57097294
   0.42081878  0.38506663  0.49809049
   0.56921136  0.39137710  0.49973184
   0.27919402  0.49396102  0.31959673
   0.35888412  0.73536993  0.49358655
   0.64670558  0.27441202  0.49387268
   0.62280165  0.56822562  0.69489376
   0.69816318  0.61655424  0.43381417
   0.30692465  0.61743697  0.57595392
   0.42533953  0.69493564  0.62116366
   0.57311653  0.30804317  0.61688600
   0.49709481  0.43417130  0.60896547
   0.50436186  0.43173257  0.38674681
   0.50246721  0.57330548  0.38826053
   0.72359489  0.48747648  0.49939946
   0.28222503  0.50100556  0.64862212
   0.37690996  0.26701284  0.51433698
   0.50029760  0.63170639  0.28228620
   0.39458665  0.56648771  0.31603955
   0.67827767  0.38708666  0.42363092
   0.68210686  0.38449114  0.56906887
   0.43733618  0.32044307  0.61495107
   0.49151438  0.50177305  0.49482037
   0.36998444  0.50207754  0.42797142
   0.25456663  0.49773331  0.51229196
   0.50029062  0.74293622  0.49870145
   0.62382496  0.42748899  0.30478926
   0.69699985  0.61938214  0.58064561
   0.30234345  0.62417276  0.42390516
   0.30294903  0.37659920  0.42028327
   0.30791639  0.37528102  0.58330611
   0.57185373  0.69213387  0.38134106
   0.42593360  0.30143586  0.38219969
   0.60864586  0.50650090  0.42665913
   0.56843146  0.61481164  0.50341057
   0.49496138  0.57275872  0.60990422
   0.72660680  0.49639129  0.37121457
   0.64172627  0.72296189  0.50192274
   0.50339865  0.27070151  0.50090910
   0.50205915  0.36652643  0.71856605
   0.50108969  0.49880446  0.72196369
   0.50468505  0.36017174  0.27994333
   0.42579904  0.67775206  0.37839666
   0.56857413  0.31468712  0.38556561
   0.38079787  0.49775594  0.57059883
   0.42664851  0.61815231  0.49967210
   0.73348639  0.48748991  0.63391090
   0.50416108  0.63535195  0.72866312
   0.50275824  0.50125950  0.27640126
   0.61870047  0.42458724  0.68286025
   0.61981488  0.57451584  0.31353892
   0.38539363  0.42860587  0.68937957
   0.38524703  0.57285021  0.68880456
   0.39344353  0.42647927  0.31544841
   0.57099705  0.68922429  0.61647149
   0.19047130  0.50695659  0.27878648
   0.14577436  0.50568482  0.24177510
 
 position of ions in cartesian coordinates  (Angst):
  12.28992404 10.06028814 11.41945875
   8.41637570  7.70133255  9.96180987
  11.38422729  7.82754209  9.99463670
   5.58388047  9.87922035  6.39193458
   7.17768244 14.70739858  9.87173100
  12.93411157  5.48824039  9.87745360
  12.45603290 11.36451240 13.89787527
  13.96326362 12.33108490  8.67628342
   6.13849291 12.34873941 11.51907839
   8.50679051 13.89871282 12.42327323
  11.46233057  6.16086342 12.33771994
   9.94189625  8.68342607 12.17930944
  10.08723722  8.63465142  7.73493624
  10.04934413 11.46610955  7.76521059
  14.47189778  9.74952958  9.98798928
   5.64450054 10.02011125 12.97244238
   7.53819929  5.34025686 10.28673967
  10.00595203 12.63412784  5.64572408
   7.89173300 11.32975411  6.32079108
  13.56555334  7.74173319  8.47261838
  13.64213720  7.68982289 11.38137746
   8.74672359  6.40886136 12.29902136
   9.83028753 10.03546096  9.89640740
   7.39968874 10.04155080  8.55942843
   5.09133257  9.95466627 10.24583915
  10.00581249 14.85872433  9.97402909
  12.47649914  8.54977979  6.09578511
  13.93999694 12.38764282 11.61291218
   6.04686904 12.48345519  8.47810329
   6.05898059  7.53198401  8.40566538
   6.15832776  7.50562042 11.66612216
  11.43707452 13.84267732  7.62682128
   8.51867197  6.02871717  7.64399381
  12.17291722 10.13001803  8.53318260
  11.36862914 12.29623287 10.06821134
   9.89922756 11.45517435 12.19808433
  14.53213609  9.92782590  7.42429137
  12.83452546 14.45923784 10.03845473
  10.06797294  5.41403026 10.01818203
  10.04118305  7.33052856 14.37132103
  10.02179375  9.97608923 14.43927385
  10.09370095  7.20343485  5.59886667
   8.51598072 13.55504128  7.56793322
  11.37148263  6.29374249  7.71131227
   7.61595737  9.95511889 11.41197670
   8.53297017 12.36304615  9.99344205
  14.66972774  9.74979817 12.67821804
  10.08322158 12.70703899 14.57326248
  10.05516487 10.02519004  5.52802516
  12.37400931  8.49174489 13.65720494
  12.39629762 11.49031684  6.27077837
   7.70787268  8.57211750 13.78759146
   7.70494059 11.45700423 13.77609112
   7.86887056  8.52958530  6.30896824
  11.41994101 13.78448582 12.32942982
   3.80942595 10.13913177  5.57572967
   2.91548714 10.11369646  4.83550191
 


--------------------------------------------------------------------------------------------------------


 k-point   1 :   0.0000 0.0000 0.0000  plane waves:  203269

 maximum and minimum number of plane-waves per node :     12716    12694

 maximum number of plane-waves:    203269
 maximum index in each direction: 
   IXMAX=   36   IYMAX=   36   IZMAX=   36
   IXMIN=  -36   IYMIN=  -36   IZMIN=  -36


 total amount of memory used by VASP MPI-rank0   105908. kBytes
=======================================================================

   base      :      30000. kBytes
   nonl-proj :      24407. kBytes
   fftplans  :      13383. kBytes
   grid      :      28852. kBytes
   one-center:         62. kBytes
   wavefun   :       9204. kBytes
 
     INWAV:  cpu time      0.0000: real time      0.0000
 Broyden mixing: mesh for mixing (old mesh)
   NGX = 73   NGY = 73   NGZ = 73
  (NGX  =300   NGY  =300   NGZ  =300)
  gives a total of 389017 points

 initial charge density was supplied:
 charge density of overlapping atoms calculated
 number of electron     593.0000000 magnetization 
 keeping initial charge density in first step


--------------------------------------------------------------------------------------------------------


 Maximum index for augmentation-charges          211 (set IRDMAX)


--------------------------------------------------------------------------------------------------------


 First call to EWALD:  gamma=   0.089
 Maximum number of real-space cells 3x 3x 3
 Maximum number of reciprocal cells 3x 3x 3

    FEWALD:  cpu time      0.0045: real time      0.0045


--------------------------------------- Iteration      1(   1)  ---------------------------------------


    POTLOK:  cpu time      0.2945: real time      0.3478
    SETDIJ:  cpu time      0.0083: real time      0.0087
     EDDAV:  cpu time     11.1528: real time     11.2199
       DOS:  cpu time      0.0025: real time      0.0025
    --------------------------------------------
      LOOP:  cpu time     11.4580: real time     11.5789

 eigenvalue-minimisations  :   720
 total energy-change (2. order) : 0.4503043E+04  (-0.1844810E+05)
 number of electron     593.0000000 magnetization 
 augmentation part      593.0000000 magnetization 

 Free energy of the ion-electron system (eV)
  ---------------------------------------------------
  alpha Z        PSCENC =       337.48862869
  Ewald energy   TEWEN  =    140197.22324025
  -Hartree energ DENC   =   -192326.73279419
  -exchange      EXHF   =         0.00000000
  -V(xc)+E(xc)   XCENC  =       254.56883608
  PAW double counting   =     51190.70284042   -50545.41323779
  entropy T*S    EENTRO =        -0.27484889
  eigenvalues    EBANDS =      1032.12862870
  atomic energy  EATOM  =     54363.35213531
  Solvation  Ediel_sol  =         0.00000000
  ---------------------------------------------------
  free energy    TOTEN  =      4503.04342859 eV

  energy without entropy =     4503.31827748  energy(sigma->0) =     4503.18085303


--------------------------------------------------------------------------------------------------------




--------------------------------------- Iteration      1(   2)  ---------------------------------------


     EDDAV:  cpu time     12.5586: real time     12.6338
       DOS:  cpu time      0.0007: real time      0.0007
    --------------------------------------------
      LOOP:  cpu time     12.5593: real time     12.6345

 eigenvalue-minimisations  :   864
 total energy-change (2. order) :-0.3758182E+04  (-0.3248798E+04)
 number of electron     593.0000000 magnetization 
 augmentation part      593.0000000 magnetization 

 Free energy of the ion-electron system (eV)
  ---------------------------------------------------
  alpha Z        PSCENC =       337.48862869
  Ewald energy   TEWEN  =    140197.22324025
  -Hartree energ DENC   =   -192326.73279419
  -exchange      EXHF   =         0.00000000
  -V(xc)+E(xc)   XCENC  =       254.56883608
  PAW double counting   =     51190.70284042   -50545.41323779
  entropy T*S    EENTRO =        -0.12249653
  eigenvalues    EBANDS =     -2726.20530912
  atomic energy  EATOM  =     54363.35213531
  Solvation  Ediel_sol  =         0.00000000
  ---------------------------------------------------
  free energy    TOTEN  =       744.86184313 eV

  energy without entropy =      744.98433966  energy(sigma->0) =      744.92309140


--------------------------------------------------------------------------------------------------------




--------------------------------------- Iteration      1(   3)  ---------------------------------------


     EDDAV:  cpu time     14.6245: real time     14.7138
       DOS:  cpu time      0.0008: real time      0.0018
    --------------------------------------------
      LOOP:  cpu time     14.6253: real time     14.7156

 eigenvalue-minimisations  :  1040
 total energy-change (2. order) :-0.8435253E+03  (-0.7922867E+03)
 number of electron     593.0000000 magnetization 
 augmentation part      593.0000000 magnetization 

 Free energy of the ion-electron system (eV)
  ---------------------------------------------------
  alpha Z        PSCENC =       337.48862869
  Ewald energy   TEWEN  =    140197.22324025
  -Hartree energ DENC   =   -192326.73279419
  -exchange      EXHF   =         0.00000000
  -V(xc)+E(xc)   XCENC  =       254.56883608
  PAW double counting   =     51190.70284042   -50545.41323779
  entropy T*S    EENTRO =        -0.14817558
  eigenvalues    EBANDS =     -3569.70489175
  atomic energy  EATOM  =     54363.35213531
  Solvation  Ediel_sol  =         0.00000000
  ---------------------------------------------------
  free energy    TOTEN  =       -98.66341855 eV

  energy without entropy =      -98.51524298  energy(sigma->0) =      -98.58933076


--------------------------------------------------------------------------------------------------------




--------------------------------------- Iteration      1(   4)  ---------------------------------------


     EDDAV:  cpu time     16.1486: real time     16.2478
       DOS:  cpu time      0.0015: real time      0.0015
    --------------------------------------------
      LOOP:  cpu time     16.1501: real time     16.2493

 eigenvalue-minimisations  :  1184
 total energy-change (2. order) :-0.1025518E+03  (-0.9029993E+02)
 number of electron     593.0000000 magnetization 
 augmentation part      593.0000000 magnetization 

 Free energy of the ion-electron system (eV)
  ---------------------------------------------------
  alpha Z        PSCENC =       337.48862869
  Ewald energy   TEWEN  =    140197.22324025
  -Hartree energ DENC   =   -192326.73279419
  -exchange      EXHF   =         0.00000000
  -V(xc)+E(xc)   XCENC  =       254.56883608
  PAW double counting   =     51190.70284042   -50545.41323779
  entropy T*S    EENTRO =        -0.24440720
  eigenvalues    EBANDS =     -3672.16044775
  atomic energy  EATOM  =     54363.35213531
  Solvation  Ediel_sol  =         0.00000000
  ---------------------------------------------------
  free energy    TOTEN  =      -201.21520617 eV

  energy without entropy =     -200.97079898  energy(sigma->0) =     -201.09300258


--------------------------------------------------------------------------------------------------------




--------------------------------------- Iteration      1(   5)  ---------------------------------------


     EDDAV:  cpu time     16.0622: real time     16.1588
       DOS:  cpu time      0.0033: real time      0.0033
    CHARGE:  cpu time      0.6869: real time      0.6908
    MIXING:  cpu time      0.0076: real time      0.0077
    --------------------------------------------
      LOOP:  cpu time     16.7599: real time     16.8605

 eigenvalue-minimisations  :  1168
 total energy-change (2. order) :-0.5957377E+01  (-0.5717285E+01)
 number of electron     593.0000016 magnetization 
 augmentation part      254.0924828 magnetization 

 Broyden mixing:
  rms(total) = 0.52967E+01    rms(broyden)= 0.52965E+01
  rms(prec ) = 0.56448E+01
  weight for this iteration     100.00

 Free energy of the ion-electron system (eV)
  ---------------------------------------------------
  alpha Z        PSCENC =       337.48862869
  Ewald energy   TEWEN  =    140197.22324025
  -Hartree energ DENC   =   -192326.73279419
  -exchange      EXHF   =         0.00000000
  -V(xc)+E(xc)   XCENC  =       254.56883608
  PAW double counting   =     51190.70284042   -50545.41323779
  entropy T*S    EENTRO =        -0.24769797
  eigenvalues    EBANDS =     -3678.11453357
  atomic energy  EATOM  =     54363.35213531
  Solvation  Ediel_sol  =         0.00000000
  ---------------------------------------------------
  free energy    TOTEN  =      -207.17258276 eV

  energy without entropy =     -206.92488479  energy(sigma->0) =     -207.04873378


--------------------------------------------------------------------------------------------------------




--------------------------------------- Iteration      1(   6)  ---------------------------------------


    POTLOK:  cpu time      0.2809: real time      0.2826
    SETDIJ:  cpu time      0.0053: real time      0.0053
    EDDIAG:  cpu time      2.2572: real time      2.2722
  RMM-DIIS:  cpu time     10.5104: real time     10.5759
    ORTHCH:  cpu time      0.1498: real time      0.1506
       DOS:  cpu time      0.0011: real time      0.0012
    CHARGE:  cpu time      0.6786: real time      0.6824
    MIXING:  cpu time      0.0081: real time      0.0082
    --------------------------------------------
      LOOP:  cpu time     13.8914: real time     13.9783

 eigenvalue-minimisations  :   882
 total energy-change (2. order) :-0.2347243E+02  (-0.3008140E+02)
 number of electron     593.0000020 magnetization 
 augmentation part      259.3022829 magnetization 

 Broyden mixing:
  rms(total) = 0.51812E+01    rms(broyden)= 0.51810E+01
  rms(prec ) = 0.62764E+01
  weight for this iteration     100.00

 eigenvalues of (default mixing * dielectric matrix)
  average eigenvalue GAMMA=   0.5288
  0.5288

 Free energy of the ion-electron system (eV)
  ---------------------------------------------------
  alpha Z        PSCENC =       337.48862869
  Ewald energy   TEWEN  =    140197.22324025
  -Hartree energ DENC   =   -191932.14975225
  -exchange      EXHF   =         0.00000000
  -V(xc)+E(xc)   XCENC  =       232.53747046
  PAW double counting   =     53554.89799194   -52855.37132262
  entropy T*S    EENTRO =        -0.29911956
  eigenvalues    EBANDS =     -4128.32428772
  atomic energy  EATOM  =     54363.35213531
  Solvation  Ediel_sol  =         0.00000000
  ---------------------------------------------------
  free energy    TOTEN  =      -230.64501550 eV

  energy without entropy =     -230.34589594  energy(sigma->0) =     -230.49545572


--------------------------------------------------------------------------------------------------------




--------------------------------------- Iteration      1(   7)  ---------------------------------------


    POTLOK:  cpu time      0.2691: real time      0.2708
    SETDIJ:  cpu time      0.0044: real time      0.0045
    EDDIAG:  cpu time      2.2274: real time      2.2416
  RMM-DIIS:  cpu time      8.6506: real time      8.7033
    ORTHCH:  cpu time      0.1454: real time      0.1462
       DOS:  cpu time      0.0007: real time      0.0007
[...]
 -2.938  -0.204  -0.260  -0.010   0.129   2.835   0.299   0.256   0.031  -0.134  -0.208   0.027  -0.056   0.008   0.008   0.002
 -0.204  -3.247  -0.103   0.054  -0.081   0.299   3.103   0.088  -0.086   0.092   0.038  -0.071  -0.033   0.005   0.005   0.002
 -0.259  -0.103  -3.222   0.031   0.099   0.256   0.088   3.082   0.021  -0.148   0.049  -0.009   0.002   0.007  -0.007  -0.001
 -0.010   0.054   0.031  -3.013  -0.186   0.031  -0.086   0.021   2.832   0.112   0.333  -0.078   0.002   0.014   0.024   0.000
  0.129  -0.081   0.100  -0.186  -2.980  -0.134   0.092  -0.148   0.112   2.841   0.092  -0.003   0.002   0.033   0.070  -0.000
  0.216  -0.060  -0.060  -0.376  -0.099  -0.208   0.038   0.049   0.333   0.092   2.876  -0.748  -0.017  -0.019   0.011   0.001
 -0.010   0.092   0.004   0.076  -0.002   0.027  -0.071  -0.009  -0.078  -0.003  -0.748   0.219  -0.000   0.011   0.008  -0.000
  0.063   0.026   0.001   0.000   0.007  -0.056  -0.033   0.002   0.002   0.002  -0.017  -0.000   0.203  -0.006  -0.017  -0.008
 -0.010  -0.019  -0.010  -0.002  -0.037   0.008   0.005   0.007   0.014   0.033  -0.019   0.011  -0.006   0.214   0.019  -0.000
 -0.020  -0.006   0.009  -0.035  -0.062   0.008   0.005  -0.007   0.024   0.070   0.011   0.008  -0.017   0.019   0.214   0.001
 -0.004  -0.003  -0.001  -0.000  -0.002   0.002   0.002  -0.001   0.000  -0.000   0.001  -0.000  -0.008  -0.000   0.001   0.000
  0.000   0.004   0.000  -0.005  -0.001  -0.000  -0.001  -0.000   0.001  -0.000   0.001  -0.001  -0.000  -0.008  -0.001   0.000
  0.002   0.000   0.002  -0.005  -0.005  -0.000  -0.000  -0.001   0.002   0.001  -0.000  -0.000   0.001  -0.001  -0.008  -0.000


------------------------ aborting loop because EDIFF is reached ----------------------------------------


    CHARGE:  cpu time      0.6763: real time      0.6803
    FORLOC:  cpu time      0.0374: real time      0.0376
    FORNL :  cpu time      2.7421: real time      2.7560
    STRESS:  cpu time      5.5928: real time      5.6263
    FORCOR:  cpu time      0.2957: real time      0.2975
    FORHAR:  cpu time      0.0977: real time      0.0982
    MIXING:  cpu time      0.0099: real time      0.0100
    OFIELD:  cpu time      0.0001: real time      0.0001

  FORCE on cell =-STRESS in cart. coord.  units (eV):
  Direction    XX          YY          ZZ          XY          YZ          ZX
  --------------------------------------------------------------------------------------
  Alpha Z   337.48863   337.48863   337.48863
  Ewald   51505.64112 44002.43455 44488.30466  -258.61428    82.40539  2162.28051
  Hartree 68476.44519 61551.38612 62160.34188  -259.79878     5.16302  1874.63598
  E(xc)   -3001.33815 -3004.32860 -3005.32462    -0.20543     0.08342     0.95150
  Local  ************************************   519.62633   -91.29996 -4027.38820
  n-local  -477.86050  -474.09769  -476.48880     1.54025     0.29176    -3.43910
  augment  4183.22570  4187.61594  4190.12431    -1.66966     0.81147     1.76677
  Kinetic  7475.99605  7508.47841  7508.33661    -0.96648     2.50588    -8.88876
  Fock        0.00000     0.00000     0.00000     0.00000     0.00000     0.00000
  -------------------------------------------------------------------------------------
  Total      -0.68778    -0.62378    -0.68629    -0.08807    -0.03901    -0.08131
  in kB      -0.13774    -0.12493    -0.13744    -0.01764    -0.00781    -0.01628
  external pressure =       -0.13 kB  Pullay stress =        0.00 kB


 VOLUME and BASIS-vectors are now :
 -----------------------------------------------------------------------------
  energy-cutoff  :      500.00
  volume of cell :     8000.00
      direct lattice vectors                 reciprocal lattice vectors
    20.000000000  0.000000000  0.000000000     0.050000000  0.000000000  0.000000000
     0.000000000 20.000000000  0.000000000     0.000000000  0.050000000  0.000000000
     0.000000000  0.000000000 20.000000000     0.000000000  0.000000000  0.050000000

  length of vectors
    20.000000000 20.000000000 20.000000000     0.050000000  0.050000000  0.050000000


 FORCES acting on ions
    electron-ion (+dipol)            ewald-force                    non-local-force                 convergence-correction
 -----------------------------------------------------------------------------------------------
   -.893E+03 -.146E+03 -.645E+03   0.894E+03 0.145E+03 0.645E+03   -.842E+00 0.849E+00 0.186E+00   0.138E-01 -.225E-01 -.366E-02
   0.714E+03 0.890E+03 0.841E+02   -.714E+03 -.889E+03 -.831E+02   0.201E+00 -.534E+00 -.977E+00   -.405E-03 -.926E-02 0.421E-02
   -.530E+03 0.921E+03 -.221E+02   0.530E+03 -.920E+03 0.213E+02   0.253E+00 -.972E+00 0.764E+00   0.204E-02 -.174E-01 -.483E-02
   0.122E+04 0.664E+02 0.102E+04   -.122E+04 -.670E+02 -.102E+04   -.186E+01 0.619E+00 0.684E+00   -.772E-02 -.137E-02 0.262E-02
   0.961E+03 -.159E+04 0.206E+02   -.958E+03 0.158E+04 -.216E+02   -.244E+01 0.267E+01 0.100E+01   -.751E-02 0.432E-02 -.299E-02
   -.107E+04 0.166E+04 0.352E+02   0.107E+04 -.165E+04 -.363E+02   0.195E+01 -.315E+01 0.111E+01   -.683E-02 0.238E-02 -.550E-02
   -.950E+03 -.572E+03 -.153E+04   0.949E+03 0.571E+03 0.153E+04   0.104E+01 0.787E+00 0.848E+00   0.181E-01 -.830E-02 0.757E-02
   -.153E+04 -.966E+03 0.534E+03   0.152E+04 0.965E+03 -.534E+03   0.764E+00 0.627E+00 -.391E+00   0.889E-02 -.707E-02 -.116E-01
   0.146E+04 -.977E+03 -.594E+03   -.146E+04 0.975E+03 0.594E+03   -.106E+01 0.227E+01 -.274E+00   -.828E-02 -.534E-02 0.216E-03
   0.560E+03 -.150E+04 -.966E+03   -.558E+03 0.149E+04 0.966E+03   -.113E+01 0.218E+01 0.238E+00   -.179E-01 0.105E-01 0.304E-04
   -.627E+03 0.157E+04 -.989E+03   0.626E+03 -.157E+04 0.989E+03   0.908E+00 -.134E+01 -.291E+00   -.489E-02 -.302E-02 -.310E-02
   0.609E+01 0.487E+03 -.923E+03   -.754E+01 -.486E+03 0.925E+03   0.145E+01 -.961E+00 -.215E+01   -.892E-02 -.285E-01 -.186E-02
   -.679E+01 0.605E+03 0.926E+03   0.776E+01 -.605E+03 -.928E+03   -.987E+00 -.359E+00 0.226E+01   0.739E-02 -.152E-01 -.298E-02
   -.577E+02 -.632E+03 0.810E+03   0.583E+02 0.632E+03 -.811E+03   -.683E+00 -.403E+00 0.879E+00   0.260E-02 -.706E-02 -.139E-01
   -.186E+04 0.609E+01 -.173E+02   0.186E+04 -.790E+01 0.169E+02   0.265E+01 0.182E+01 0.408E+00   0.388E-02 -.780E-02 -.607E-02
   0.159E+04 -.156E+02 -.115E+04   -.158E+04 0.152E+02 0.115E+04   -.834E+01 0.422E+00 0.278E+01   0.327E-02 -.761E-02 0.300E-03
   0.997E+03 0.171E+04 -.829E+02   -.989E+03 -.171E+04 0.838E+02   -.802E+01 -.548E+01 -.921E+00   0.623E-02 0.918E-03 0.456E-03
   -.648E+02 -.110E+04 0.176E+04   0.640E+02 0.110E+04 -.176E+04   0.722E+00 0.420E+01 -.749E+01   0.581E-02 -.268E-02 -.695E-02
   0.916E+03 -.574E+03 0.150E+04   -.913E+03 0.573E+03 -.150E+04   -.277E+01 0.116E+01 -.214E+01   -.260E-02 -.333E-02 -.358E-02
   -.150E+04 0.989E+03 0.667E+03   0.150E+04 -.986E+03 -.668E+03   0.233E+01 -.250E+01 0.600E+00   -.354E-02 -.533E-02 -.320E-02
   -.152E+04 0.102E+04 -.630E+03   0.152E+04 -.101E+04 0.631E+03   0.174E+01 -.403E+01 -.712E+00   0.125E-03 -.671E-02 -.442E-02
   0.550E+03 0.152E+04 -.103E+04   -.549E+03 -.152E+04 0.103E+04   -.123E+01 -.164E+01 0.126E+01   0.166E-02 0.625E-03 0.267E-02
   0.122E+03 -.689E+02 -.268E+01   -.123E+03 0.700E+02 0.263E+01   0.273E+00 -.994E+00 0.694E-01   -.804E-02 -.242E-01 -.718E-02
   0.113E+04 -.138E+02 0.484E+03   -.113E+04 0.137E+02 -.484E+03   0.198E+00 0.199E+00 0.327E+00   -.789E-02 -.768E-02 0.232E-02
   0.180E+04 0.315E+02 -.175E+02   -.180E+04 -.310E+02 0.197E+02   -.478E+01 -.536E+00 -.222E+01   -.226E-02 -.386E-02 0.263E-02
   -.274E+02 -.181E+04 -.399E+01   0.280E+02 0.180E+04 0.420E+01   -.575E+00 0.355E+01 -.210E+00   -.628E-02 0.125E-01 -.795E-02
   -.100E+04 0.568E+03 0.159E+04   0.100E+04 -.567E+03 -.158E+04   0.178E+01 -.104E+01 -.299E+01   0.642E-03 -.659E-02 0.963E-03
   -.149E+04 -.954E+03 -.648E+03   0.148E+04 0.953E+03 0.647E+03   0.329E+01 0.826E+00 0.889E+00   0.157E-01 -.487E-02 -.789E-03
   0.150E+04 -.925E+03 0.540E+03   -.150E+04 0.925E+03 -.538E+03   -.503E+01 0.161E+00 -.136E+01   -.783E-02 -.103E-02 -.124E-02
   0.149E+04 0.970E+03 0.549E+03   -.148E+04 -.968E+03 -.549E+03   -.419E+01 -.194E+01 0.138E+00   0.453E-03 -.376E-02 0.118E-02
   0.151E+04 0.993E+03 -.628E+03   -.151E+04 -.991E+03 0.629E+03   -.374E+01 -.260E+01 -.321E+00   0.438E-02 0.531E-05 0.331E-02
   -.634E+03 -.156E+04 0.914E+03   0.632E+03 0.156E+04 -.913E+03   0.180E+01 0.301E+01 -.146E+01   0.387E-02 0.269E-02 -.132E-01
   0.586E+03 0.155E+04 0.948E+03   -.584E+03 -.155E+04 -.947E+03   -.196E+01 -.278E+01 -.144E+01   0.923E-02 -.416E-02 0.820E-03
   -.848E+03 -.118E+03 0.541E+03   0.847E+03 0.119E+03 -.542E+03   0.108E+01 -.335E+00 0.575E+00   0.115E-01 -.133E-01 -.116E-01
   -.531E+03 -.914E+03 -.661E+02   0.530E+03 0.914E+03 0.667E+02   0.109E+01 0.344E+00 -.544E+00   0.782E-02 -.213E-02 -.144E-01
   0.219E+02 -.616E+03 -.849E+03   -.224E+02 0.615E+03 0.848E+03   0.584E+00 0.244E+00 0.414E+00   -.120E-01 -.134E-01 -.221E-02
   -.155E+04 -.240E+02 0.945E+03   0.154E+04 0.235E+02 -.941E+03   0.495E+01 0.463E+00 -.396E+01   -.387E-03 -.501E-02 -.373E-02
   -.943E+03 -.147E+04 -.236E+02   0.940E+03 0.146E+04 0.238E+02   0.298E+01 0.518E+01 -.241E+00   0.865E-02 0.757E-02 -.710E-02
   -.770E+02 0.170E+04 0.151E+02   0.754E+02 -.170E+04 -.148E+02   0.156E+01 -.205E+01 -.339E+00   0.402E-02 0.533E-04 -.307E-02
   -.318E+02 0.942E+03 -.159E+04   0.319E+02 -.938E+03 0.159E+04   -.107E+00 -.357E+01 0.436E+01   -.704E-02 -.107E-01 -.370E-02
   -.321E+02 -.314E+02 -.170E+04   0.313E+02 0.313E+02 0.170E+04   0.863E+00 0.116E+00 0.225E+01   -.773E-02 -.222E-01 0.637E-02
   -.410E+02 0.988E+03 0.154E+04   0.411E+02 -.985E+03 -.153E+04   -.607E-01 -.241E+01 -.564E+01   0.834E-02 -.887E-02 0.643E-03
   0.570E+03 -.142E+04 0.846E+03   -.569E+03 0.141E+04 -.846E+03   -.106E+01 0.394E+01 -.533E-01   -.498E-02 0.377E-02 -.525E-02
   -.525E+03 0.143E+04 0.882E+03   0.524E+03 -.143E+04 -.881E+03   0.100E+01 -.166E+01 -.484E+00   0.878E-03 -.461E-02 -.162E-02
   0.883E+03 -.271E+02 -.489E+03   -.883E+03 0.269E+02 0.490E+03   -.695E+00 0.221E+00 -.480E+00   -.138E-01 -.152E-01 0.246E-02
   0.567E+03 -.904E+03 -.505E+02   -.566E+03 0.903E+03 0.502E+02   -.888E+00 0.712E+00 0.352E+00   -.180E-01 -.705E-03 -.897E-02
   -.151E+04 0.404E+02 -.951E+03   0.151E+04 -.411E+02 0.948E+03   0.531E+01 0.711E+00 0.327E+01   0.429E-02 -.638E-02 -.108E-02
   -.395E+02 -.910E+03 -.148E+04   0.396E+02 0.907E+03 0.148E+04   -.835E-01 0.367E+01 0.491E+01   -.487E-02 0.468E-02 0.144E-01
   -.851E+02 0.449E+02 0.176E+04   0.844E+02 -.444E+02 -.175E+04   0.700E+00 -.458E+00 -.325E+01   0.890E-02 -.538E-02 -.763E-02
   -.882E+03 0.543E+03 -.143E+04   0.880E+03 -.543E+03 0.143E+04   0.150E+01 -.515E+00 0.235E+01   0.227E-02 -.137E-01 -.214E-02
   -.967E+03 -.578E+03 0.139E+04   0.964E+03 0.576E+03 -.139E+04   0.264E+01 0.175E+01 -.316E+01   0.616E-02 -.692E-02 -.604E-02
   0.833E+03 0.532E+03 -.146E+04   -.832E+03 -.530E+03 0.146E+04   -.157E+01 -.167E+01 0.252E+01   -.468E-02 -.113E-01 -.220E-02
   0.795E+03 -.581E+03 -.141E+04   -.793E+03 0.580E+03 0.141E+04   -.189E+01 0.172E+01 0.282E+01   -.210E-01 -.935E-02 0.462E-02
   0.752E+03 0.625E+03 0.135E+04   -.751E+03 -.623E+03 -.135E+04   -.575E+00 -.205E+01 -.125E+01   0.463E-02 -.744E-02 -.103E-02
   -.525E+03 -.136E+04 -.883E+03   0.523E+03 0.135E+04 0.880E+03   0.128E+01 0.272E+01 0.235E+01   0.773E-02 0.134E-01 0.207E-02
   0.249E+03 -.261E+02 0.169E+03   -.235E+03 0.262E+02 -.158E+03   -.141E+02 -.106E+00 -.110E+02   -.198E-02 0.376E-03 0.721E-03
   0.531E+03 -.264E+02 0.425E+03   -.579E+03 0.280E+02 -.459E+03   0.489E+02 -.165E+01 0.342E+02   -.540E-02 -.137E-02 -.387E-02
 -----------------------------------------------------------------------------------------------
   -.251E+02 0.908E+00 -.189E+02   0.148E-11 0.251E-11 -.148E-11   0.251E+02 -.602E+00 0.191E+02   -.195E-01 -.309E+00 -.130E+00
 
 
 POSITION                                       TOTAL-FORCE (eV/Angst)
 -----------------------------------------------------------------------------------
     12.27642     10.06020     11.42150        -0.004597     -0.000956      0.002231
      8.39310      7.70053      9.94234        -0.004347     -0.004010      0.002816
     11.36831      7.83049      9.99654         0.000472     -0.002992     -0.000336
      5.60054      9.85012      6.32636         0.004837     -0.004090      0.005675
      7.18665     14.72362      9.87091         0.001326      0.001300      0.000417
     12.93520      5.49221      9.89216         0.001218      0.000532      0.000360
     12.46471     11.36752     13.89498        -0.001660      0.000729      0.000512
     13.96888     12.33302      8.67500        -0.001864      0.002771     -0.001618
      6.13966     12.35011     11.53770         0.000760      0.000646      0.000117
      8.51009     13.90104     12.41994        -0.000663     -0.000483     -0.001749
     11.46788      6.16145     12.33665        -0.000804     -0.000743      0.000447
      9.92944      8.68672     12.16982        -0.001675      0.000069     -0.001145
     10.11360      8.63129      7.72688        -0.004622      0.003106      0.005329
     10.05712     11.46401      7.75725        -0.000465      0.001094      0.000493
     14.47377      9.76929     10.00042         0.000724      0.003015      0.000654
      5.64874     10.01879     12.99910         0.003904     -0.000561     -0.001603
      7.53723      5.33401     10.27828         0.000419     -0.000716      0.000508
     10.01029     12.62735      5.63884         0.000431     -0.000169     -0.000567
      7.90382     11.31120      6.32384         0.001303      0.001092     -0.000261
     13.56946      7.74806      8.49644        -0.001451      0.000992      0.003210
     13.63962      7.70107     11.37359        -0.000175      0.000040     -0.001007
      8.74988      6.41065     12.28419         0.001508      0.001926      0.002910
      9.80671     10.03405      9.87726        -0.000259     -0.000607      0.006073
      7.34535     10.03749      8.56059        -0.000567     -0.000203     -0.003853
      5.06684      9.95391     10.28910        -0.005131      0.002332      0.006100
     10.00741     14.85557      9.96941        -0.000226     -0.000675      0.000335
     12.49561      8.54517      6.10530        -0.001541     -0.004372     -0.001764
     13.94152     12.38054     11.60284        -0.000622      0.000704     -0.000373
      6.03951     12.50490      8.49486        -0.000807      0.000277      0.000900
      6.06259      7.50228      8.35499         0.003706     -0.004514     -0.004782
      6.16118      7.49789     11.68332         0.001204      0.000833     -0.001074
     11.43888     13.83846      7.62109        -0.000721     -0.000739     -0.001377
      8.53824      6.01525      7.63558        -0.000318      0.001600     -0.001744
     12.17537     10.13438      8.54272         0.004226      0.001004      0.001337
     11.35580     12.29355     10.06602        -0.003496      0.000554      0.000698
      9.88457     11.45392     12.18826        -0.000256     -0.005345     -0.010429
     14.53911      9.92648      7.43748         0.001825     -0.000649      0.000895
     12.83092     14.45310     10.03518        -0.001606     -0.000027     -0.000135
     10.06588      5.41713     10.01884         0.004221     -0.002064     -0.000270
     10.04450      7.32875     14.36185        -0.000650      0.001995     -0.001181
     10.03351      9.97440     14.43032        -0.001642     -0.000874      0.003002
     10.11376      7.19672      5.59950         0.005716     -0.008413     -0.003090
      8.51537     13.54536      7.56137        -0.001018     -0.003935     -0.003306
     11.38864      6.28777      7.71732        -0.001199      0.000241     -0.003137
      7.60251      9.95015     11.41063        -0.002437     -0.000623      0.002336
      8.51609     12.36115      9.98781        -0.002150     -0.001462     -0.001328
     14.66579      9.75601     12.68080        -0.002763      0.002320      0.000763
     10.09198     12.70442     14.56923        -0.000459      0.000554      0.000704
     10.07190     10.01816      5.52062         0.006074      0.004540     -0.005424
     12.37743      8.49256     13.65685        -0.000056     -0.000916     -0.001796
     12.40834     11.48450      6.27409         0.000308     -0.001011      0.001017
      7.71445      8.57458     13.79421         0.001687     -0.000468     -0.002056
      7.71327     11.45557     13.78404         0.000210      0.000732      0.001171
      7.89052      8.52638      6.31057         0.011114     -0.000607      0.003368
     11.42253     13.77722     12.32791         0.000108     -0.000455     -0.002701
      3.80772     10.16199      5.57499         0.005112      0.004618     -0.003259
      2.85704     10.19373      4.91018        -0.012165      0.013063      0.006982
 -----------------------------------------------------------------------------------
    total drift:                               -0.000250     -0.002578     -0.004880


--------------------------------------------------------------------------------------------------------



  FREE ENERGIE OF THE ION-ELECTRON SYSTEM (eV)
  ---------------------------------------------------
  free  energy   TOTEN  =      -186.35075865 eV

  energy  without entropy=     -186.16184759  energy(sigma->0) =     -186.25630312
 
 d Force = 0.1428523E-04[ 0.422E-05, 0.243E-04]  d Energy = 0.1091195E-04 0.337E-05
 d Force =-0.4597215E+00[-0.460E+00,-0.460E+00]  d Ewald  =-0.4597215E+00-0.274E-08


--------------------------------------------------------------------------------------------------------


    POTLOK:  cpu time      0.2859: real time      0.2877


--------------------------------------------------------------------------------------------------------


 stress matrix after NEB project (eV)
     -0.68778     -0.08807     -0.08131
     -0.08807     -0.62378     -0.03901
     -0.08131     -0.03901     -0.68629
  FORCES: max atom, RMS     0.019167    0.005300
  FORCE total and by dimension    0.040017    0.013063
  Stress total and by dimension    1.168297    0.687783
 Conjugate gradient step on ions:
 trial-energy change:   -0.000011  1 .order   -0.000014   -0.000024   -0.000004
  (g-gl).g =-0.549E-04      g.g   = 0.182E-03  gl.gl    = 0.618E-03
 g(Force)  = 0.182E-03   g(Stress)= 0.000E+00 ortho     =-0.236E-04
 gamma     =  -0.08889
 trial     =   0.13219
 opt step  =   0.15992  (harmonic =   0.15992) maximal distance =0.00019356
 next E    =  -186.350762   (d E  =  -0.00001)


--------------------------------------------------------------------------------------------------------


  
 reached required accuracy - stopping structural energy minimisation
     LOOP+:  cpu time     60.7458: real time     61.1642
    4ORBIT:  cpu time      0.0000: real time      0.0000

 total amount of memory used by VASP MPI-rank0   105908. kBytes
=======================================================================

   base      :      30000. kBytes
   nonl-proj :      24407. kBytes
   fftplans  :      13383. kBytes
   grid      :      28852. kBytes
   one-center:         62. kBytes
   wavefun   :       9204. kBytes
 
  
  
 General timing and accounting informations for this job:
 ========================================================
  
                  Total CPU time used (sec):     3801.372
                            User time (sec):     3449.049
                          System time (sec):      352.324
                         Elapsed time (sec):     3828.941
  
                   Maximum memory used (kb):      351648.
                   Average memory used (kb):          N/A
  
                          Minor page faults:       479468
                          Major page faults:            0
                 Voluntary context switches:         2972
